HF file generated by AutoMR of MOKIT
Stability RHF                                                         Gen
Number of atoms                            I                2
Info1-9                                    I   N=           9
           6           5           0           0           0         110
           7           1           2
Charge                                     I                0
Multiplicity                               I                1
Number of electrons                        I               48
Number of alpha electrons                  I               24
Number of beta electrons                   I               24
Number of basis functions                  I               66
Number of independent functions            I               66
Number of point charges in /Mol/           I                0
Number of translation vectors              I                0
Atomic numbers                             I   N=           2
          24          24
Nuclear charges                            R   N=           2
  2.40000000E+01  2.40000000E+01
Current cartesian coordinates              R   N=           6
  0.00000000E+00  0.00000000E+00  0.00000000E+00  0.00000000E+00  0.00000000E+00
  3.77945227E+00
Force Field                                I                0
Int Atom Types                             I   N=           2
           0           0
MM charges                                 R   N=           2
  0.00000000E+00  0.00000000E+00
Integer atomic weights                     I   N=           2
          52          52
Real atomic weights                        R   N=           2
  5.19405097E+01  5.19405097E+01
Atom fragment info                         I   N=           2
           1           2
Atom residue num                           I   N=           2
           0           0
Nuclear spins                              I   N=           2
           0           0
Nuclear ZEff                               R   N=           2
 -2.47200000E+01 -2.47200000E+01
Nuclear QMom                               R   N=           2
  0.00000000E+00  0.00000000E+00
Nuclear GFac                               R   N=           2
  0.00000000E+00  0.00000000E+00
MicOpt                                     I   N=           2
          -1          -1
Number of contracted shells                I               26
Number of primitive shells                 I               68
Pure/Cartesian d shells                    I                0
Pure/Cartesian f shells                    I                0
Highest angular momentum                   I                2
Largest degree of contraction              I                8
Shell types                                I   N=          26
           0           0           0           0           0           0
           1           1           1          -2          -2          -2
           1           0           0           0           0           0
           0           1           1           1          -2          -2
          -2           1
Number of primitives per shell             I   N=          26
           8           4           2           1           1           1
           6           3           1           4           1           1
           1           8           4           2           1           1
           1           6           3           1           4           1
           1           1
Shell to atom map                          I   N=          26
           1           1           1           1           1           1
           1           1           1           1           1           1
           1           2           2           2           2           2
           2           2           2           2           2           2
           2           2
Primitive exponents                        R   N=          68
  2.54477807E+05  3.81317971E+04  8.67529306E+03  2.45500998E+03  7.99162178E+02
  2.86900215E+02  1.11254132E+02  4.38641526E+01  2.79326692E+02  8.62747324E+01
  1.35557561E+01  5.69781128E+00  8.56365826E+00  1.39882968E+00  5.72881710E-01
  9.00961700E-02  3.41258900E-02  1.30643989E+03  3.09253114E+02  9.89962740E+01
  3.67569164E+01  1.45666571E+01  5.87399374E+00  2.28909997E+01  3.08550018E+00
  1.21323291E+00  4.49316810E-01  4.37200745E+01  1.23912427E+01  4.26394420E+00
  1.55252218E+00  5.37619290E-01  1.64931730E-01  1.20675000E-01  2.54477807E+05
  3.81317971E+04  8.67529306E+03  2.45500998E+03  7.99162178E+02  2.86900215E+02
  1.11254132E+02  4.38641526E+01  2.79326692E+02  8.62747324E+01  1.35557561E+01
  5.69781128E+00  8.56365826E+00  1.39882968E+00  5.72881710E-01  9.00961700E-02
  3.41258900E-02  1.30643989E+03  3.09253114E+02  9.89962740E+01  3.67569164E+01
  1.45666571E+01  5.87399374E+00  2.28909997E+01  3.08550018E+00  1.21323291E+00
  4.49316810E-01  4.37200745E+01  1.23912427E+01  4.26394420E+00  1.55252218E+00
  5.37619290E-01  1.64931730E-01  1.20675000E-01
Contraction coefficients                   R   N=          68
  2.42905340E-04  1.88435217E-03  9.80095576E-03  3.98250093E-02  1.29405439E-01
  3.06290017E-01  4.34628353E-01  2.24695624E-01 -2.43633598E-02 -1.15114953E-01
  5.50922663E-01  5.36113546E-01 -3.71230182E-01  1.16811695E+00  1.00000000E+00
  1.00000000E+00  1.00000000E+00  2.82927702E-03  2.27766281E-02  1.05645614E-01
  2.99499448E-01  4.77062456E-01  2.76542346E-01 -1.94121084E-02  3.86188757E-01
  6.76239091E-01  1.00000000E+00  2.20932528E-02  1.28014388E-01  3.86529104E-01
  6.41033014E-01  1.00000000E+00  1.00000000E+00  1.00000000E+00  2.42905340E-04
  1.88435217E-03  9.80095576E-03  3.98250093E-02  1.29405439E-01  3.06290017E-01
  4.34628353E-01  2.24695624E-01 -2.43633598E-02 -1.15114953E-01  5.50922663E-01
  5.36113546E-01 -3.71230182E-01  1.16811695E+00  1.00000000E+00  1.00000000E+00
  1.00000000E+00  2.82927702E-03  2.27766281E-02  1.05645614E-01  2.99499448E-01
  4.77062456E-01  2.76542346E-01 -1.94121084E-02  3.86188757E-01  6.76239091E-01
  1.00000000E+00  2.20932528E-02  1.28014388E-01  3.86529104E-01  6.41033014E-01
  1.00000000E+00  1.00000000E+00  1.00000000E+00
Coordinates of each shell                  R   N=          78
  0.00000000E+00  0.00000000E+00  0.00000000E+00  0.00000000E+00  0.00000000E+00
  0.00000000E+00  0.00000000E+00  0.00000000E+00  0.00000000E+00  0.00000000E+00
  0.00000000E+00  0.00000000E+00  0.00000000E+00  0.00000000E+00  0.00000000E+00
  0.00000000E+00  0.00000000E+00  0.00000000E+00  0.00000000E+00  0.00000000E+00
  0.00000000E+00  0.00000000E+00  0.00000000E+00  0.00000000E+00  0.00000000E+00
  0.00000000E+00  0.00000000E+00  0.00000000E+00  0.00000000E+00  0.00000000E+00
  0.00000000E+00  0.00000000E+00  0.00000000E+00  0.00000000E+00  0.00000000E+00
  0.00000000E+00  0.00000000E+00  0.00000000E+00  0.00000000E+00  0.00000000E+00
  0.00000000E+00  3.77945227E+00  0.00000000E+00  0.00000000E+00  3.77945227E+00
  0.00000000E+00  0.00000000E+00  3.77945227E+00  0.00000000E+00  0.00000000E+00
  3.77945227E+00  0.00000000E+00  0.00000000E+00  3.77945227E+00  0.00000000E+00
  0.00000000E+00  3.77945227E+00  0.00000000E+00  0.00000000E+00  3.77945227E+00
  0.00000000E+00  0.00000000E+00  3.77945227E+00  0.00000000E+00  0.00000000E+00
  3.77945227E+00  0.00000000E+00  0.00000000E+00  3.77945227E+00  0.00000000E+00
  0.00000000E+00  3.77945227E+00  0.00000000E+00  0.00000000E+00  3.77945227E+00
  0.00000000E+00  0.00000000E+00  3.77945227E+00
Constraint Structure                       R   N=           6
  0.00000000E+00  0.00000000E+00  0.00000000E+00  0.00000000E+00  0.00000000E+00
  3.77945227E+00
Num ILSW                                   I              100
ILSW                                       I   N=         100
           0           0           0           0           2           1
           0           0           0           0           0          -1
           0           0           0           0           0           0
           0           0           0           0           0           0
           1           1           0           0           0           0
           0           0      100000           0          -1           0
           0           0           0           0           0           0
           0           0           0           1           0           0
           0           0           1           0           0           0
           0           0           4          40           0           0
           0           0           0           0           0           0
           0           0           0           0           0           0
           0           0           0           0           0           0
           0           0           0           0           0           0
           0           0           0           0           0           0
           0           0           0           0           0           0
           0           0           0           0
Num RLSW                                   I               40
RLSW                                       R   N=          40
  1.00000000E+00  1.00000000E+00  1.00000000E+00  1.00000000E+00  1.00000000E+00
  0.00000000E+00  0.00000000E+00  1.00000000E+00  0.00000000E+00  0.00000000E+00
  0.00000000E+00  0.00000000E+00  1.00000000E+00  0.00000000E+00  0.00000000E+00
  0.00000000E+00  0.00000000E+00  1.00000000E+00  0.00000000E+00  0.00000000E+00
  0.00000000E+00  0.00000000E+00  1.00000000E+00  0.00000000E+00  0.00000000E+00
  0.00000000E+00  0.00000000E+00  1.00000000E+00  0.00000000E+00  0.00000000E+00
  0.00000000E+00  0.00000000E+00  1.00000000E+00  0.00000000E+00  0.00000000E+00
  0.00000000E+00  0.00000000E+00  0.00000000E+00  1.00000000E+00  1.00000000E+00
MxBond                                     I                1
NBond                                      I   N=           2
           1           1
IBond                                      I   N=           2
           2           1
RBond                                      R   N=           2
  3.00000000E+00  3.00000000E+00
Virial Ratio                               R      1.999806863558677E+00
SCF Energy                                 R     -2.086589605398382E+03
Total Energy                               R     -2.086589605398382E+03
S**2                                       R      5.287350679878518E+00
S**2 after annihilation                    R      1.681821024553288E+01
RMS Density                                R      4.120979887465123E-09
External E-field                           R   N=          35
  0.00000000E+00  0.00000000E+00  0.00000000E+00  0.00000000E+00  0.00000000E+00
  0.00000000E+00  0.00000000E+00  0.00000000E+00  0.00000000E+00  0.00000000E+00
  0.00000000E+00  0.00000000E+00  0.00000000E+00  0.00000000E+00  0.00000000E+00
  0.00000000E+00  0.00000000E+00  0.00000000E+00  0.00000000E+00  0.00000000E+00
  0.00000000E+00  0.00000000E+00  0.00000000E+00  0.00000000E+00  0.00000000E+00
  0.00000000E+00  0.00000000E+00  0.00000000E+00  0.00000000E+00  0.00000000E+00
  0.00000000E+00  0.00000000E+00  0.00000000E+00  0.00000000E+00  0.00000000E+00
IOpCl                                      I                0
IROHF                                      I                0
Alpha Orbital Energies                     R   N=          66
  2.00000000E+00  2.00000000E+00  2.00000000E+00  2.00000000E+00  2.00000000E+00
  2.00000000E+00  2.00000000E+00  2.00000000E+00  2.00000000E+00  2.00000000E+00
  2.00000000E+00  2.00000000E+00  2.00000000E+00  2.00000000E+00  2.00000000E+00
  2.00000000E+00  2.00000000E+00  2.00000000E+00  1.83012709E+00  1.49041136E+00
  1.49041134E+00  1.45421813E+00  1.16516496E+00  1.16516492E+00  8.34769078E-01
  8.34769047E-01  5.45119849E-01  5.09702406E-01  5.09702388E-01  1.70439436E-01
  0.00000000E+00  0.00000000E+00  0.00000000E+00  0.00000000E+00  0.00000000E+00
  0.00000000E+00  0.00000000E+00  0.00000000E+00  0.00000000E+00  0.00000000E+00
  0.00000000E+00  0.00000000E+00  0.00000000E+00  0.00000000E+00  0.00000000E+00
  0.00000000E+00  0.00000000E+00  0.00000000E+00  0.00000000E+00  0.00000000E+00
  0.00000000E+00  0.00000000E+00  0.00000000E+00  0.00000000E+00  0.00000000E+00
  0.00000000E+00  0.00000000E+00  0.00000000E+00  0.00000000E+00  0.00000000E+00
  0.00000000E+00  0.00000000E+00  0.00000000E+00  0.00000000E+00  0.00000000E+00
  0.00000000E+00
Alpha MO coefficients                      R   N=        4356
 -6.98455233E-02 -4.91412949E-04  1.47560518E-04 -6.31976913E-05  5.33465918E-04
 -1.36048240E-04 -1.24571051E-13  1.53733757E-13 -4.75721418E-06  9.51921699E-14
 -4.95919674E-13  1.75145966E-05 -2.61548185E-12 -1.47629008E-12  2.11224784E-06
  1.67264462E-05  7.27899802E-12  2.72793207E-12 -1.13028459E-13 -6.87780825E-14
 -3.24414807E-05  3.67114608E-12  1.26263780E-12 -5.15676510E-14 -5.32946426E-15
  2.68629358E-05  3.07082697E-13  8.00029279E-13 -5.70771675E-14  6.38572035E-15
  3.94421174E-12  6.90078178E-12  2.86244612E-04  9.95366978E-01  6.94223404E-03
 -2.30687811E-03  1.55105619E-03 -8.75615217E-04  2.59580263E-04  2.05487375E-12
  2.29191888E-13 -1.28155452E-05  4.46738473E-12  1.78050944E-12  2.67478962E-05
 -6.06828060E-12 -2.54673498E-12 -7.50709003E-05 -1.26892053E-05 -3.02997196E-12
 -1.32610064E-12  4.29484277E-13  6.50349000E-14  4.93590509E-05  4.71934253E-12
  9.51619380E-13 -4.36735676E-13 -2.78852277E-13 -1.63543957E-04 -2.58089065E-12
 -1.42012418E-12 -5.21040241E-13 -3.79850021E-13  2.94759175E-12  1.01088011E-12
  3.68297751E-04  9.95366910E-01  6.94163165E-03 -2.30889712E-03  1.55749319E-03
 -8.09035794E-04  2.42960734E-04  2.92275051E-12  1.30377823E-12  1.22714327E-05
  2.46199228E-12  2.92299327E-14 -2.45423245E-05  1.38252905E-12  1.53119822E-12
  7.61116322E-05 -1.04560744E-05 -3.63190509E-13 -2.23514422E-13  1.90657202E-13
  6.18065565E-14  4.52723012E-05 -1.14574991E-11 -4.89345304E-12 -2.89077754E-13
 -2.22586113E-13 -1.61371885E-04  4.81030862E-12  1.54215136E-12 -3.48208245E-13
 -3.77205445E-13 -1.44129193E-11 -5.18544066E-12 -3.31566918E-04  6.98445551E-02
  4.82820111E-04 -1.76329101E-04  1.54929892E-04  4.15245480E-04 -1.00783976E-04
  1.40109582E-12  4.24060610E-13  2.99686716E-06 -3.30488871E-12 -1.06491606E-12
 -1.39156108E-05 -3.82795067E-12 -1.22842877E-12 -1.27206086E-05  1.51023918E-05
 -4.89119117E-12 -1.10632514E-12 -5.37134895E-14 -3.84891526E-14 -2.58011241E-05
 -3.16902075E-12 -6.64623816E-13 -5.03164403E-14 -8.13108634E-14  4.06144855E-06
  1.35056923E-12  6.31211604E-13 -3.69831351E-14 -1.71069451E-14  2.07827024E-11
  7.00924426E-12 -2.37129341E-04 -2.15766576E-01  7.17226527E-01  2.29845549E-02
 -6.03701322E-03  3.55802161E-03 -1.06518849E-03  9.39629871E-10  2.58683508E-10
  1.49477825E-03 -8.19450197E-11 -1.99259206E-11  2.75764516E-04  9.75409752E-11
  2.97275526E-11 -3.16879571E-04  2.04618861E-04  3.02985196E-10  1.10169894E-10
 -3.78463761E-11 -2.14237520E-11 -2.88073287E-04  1.82256374E-10  7.82736123E-11
  1.00698535E-11  3.00459055E-12  4.16902351E-04  7.31643054E-11  2.04789480E-11
 -6.53494507E-12 -2.38668660E-12  1.17389058E-10  2.99888893E-11  1.47455684E-03
  2.25299537E-01 -7.48915880E-01 -2.39973145E-02  6.31932877E-03 -3.61962241E-03
  1.07582815E-03 -1.22505399E-09 -4.13372537E-10  1.56272727E-03  1.33108745E-10
  5.80631379E-11  2.80428878E-04 -1.18270206E-10 -4.58821130E-11 -3.28966993E-04
 -2.08643057E-04  2.20915937E-10  6.38637515E-11  3.62598981E-11  2.11832488E-11
  2.90516389E-04  7.74957531E-11  3.03667205E-12 -9.94087581E-12 -3.57417007E-12
 -4.36084253E-04  4.47112242E-11  1.86156574E-11  7.62703713E-12  2.74648526E-12
 -1.68209194E-10 -6.47380674E-11  1.48591351E-03 -2.25311453E-01  7.48977146E-01
  2.39378088E-02 -6.66472066E-03  1.50273424E-03 -2.69314147E-04  9.63958764E-10
  2.68041186E-10  1.60511815E-03 -5.15117791E-11 -8.41486832E-12  1.13959364E-04
  1.35024570E-10  3.84886703E-11 -2.86637602E-04  9.75515042E-05 -2.19489713E-10
 -7.42540736E-11 -5.17086697E-11 -2.57685749E-11 -6.27585959E-05 -1.78349616E-10
 -5.58879180E-11  4.49234487E-13  3.28857283E-15  4.53005499E-04 -2.36268192E-10
 -9.14458040E-11 -9.35244660E-12 -2.98151234E-12 -1.71962360E-11 -1.51134171E-11
  2.94734908E-04 -2.15779019E-01  7.17290500E-01  2.29224297E-02 -6.39767675E-03
  1.34753134E-03 -2.23033306E-04  1.14149131E-09  3.82281550E-10 -1.53903555E-03
 -9.66238801E-11 -4.40563382E-11 -1.01938883E-04  1.50052644E-10  5.70364408E-11
  2.72679433E-04  8.86219502E-05  1.87238338E-10  4.89913242E-11 -4.57881276E-11
 -2.34741376E-11 -5.02543813E-05  2.06055692E-10  7.80635674E-11  4.92902593E-13
  3.50993975E-13  4.34549875E-04  1.55677791E-10  2.95826895E-11 -8.14812553E-12
 -2.65435464E-12  5.68094437E-11  2.72745366E-11 -2.30697725E-04 -5.01840819E-04
  1.67909446E-03 -2.97545569E-05  6.69869315E-05  5.36239150E-04 -8.98014727E-05
  3.66825690E-07  1.49176925E-07 -6.97352887E-01  8.02151116E-09  3.26434128E-09
 -1.51623056E-02 -1.60785151E-09 -6.61102805E-10  3.03503235E-03 -1.56096246E-04
  8.49117243E-11  2.14300927E-11 -8.28438460E-12 -3.55210480E-12  8.07800121E-05
 -3.94192197E-10 -1.29034369E-10 -1.65992967E-11 -7.92435410E-12 -3.67087081E-04
 -2.06929855E-10 -7.98149161E-11 -4.25679760E-12 -2.56979542E-12  2.72878340E-10
  1.10204848E-10 -1.05857280E-03 -5.07954252E-04  1.69878263E-03 -3.20169716E-05
  7.00033920E-05  5.10146129E-04 -9.65495236E-05  6.11364667E-07  2.30770567E-07
  7.05805168E-01  1.32760009E-08  5.00677106E-09  1.53500035E-02 -2.64387362E-09
 -9.86855297E-10 -3.08006219E-03 -1.60798312E-04 -2.57352707E-10 -1.04300887E-10
 -9.53074668E-12 -2.71940455E-12  8.82474142E-05  4.73835355E-10  1.61123618E-10
 -1.50133863E-11 -7.99695290E-12 -3.73332629E-04  1.31805141E-11 -1.25975501E-11
 -5.17286369E-12 -2.06553662E-12  7.13258266E-10  2.73408788E-10  1.09134722E-03
  5.10544354E-04 -1.64460941E-03  1.87916000E-04 -2.50731230E-04  2.16463018E-03
  5.60273759E-04 -5.78875298E-07 -1.55454387E-07  7.05750967E-01 -1.26564826E-08
 -3.40784950E-09  1.56705051E-02  2.72977218E-09  7.59543099E-10 -3.75552800E-03
  3.91144702E-04 -9.05087699E-10 -3.04260775E-10 -4.19437089E-12  4.82944637E-12
 -6.20212576E-04  1.65644468E-10  2.39086700E-11  8.27577990E-12  8.29157671E-12
  5.21148886E-04 -5.05401787E-10 -1.63326198E-10  4.55104363E-12  6.27846647E-12
 -1.27675755E-09 -3.82189505E-10  2.72804010E-03 -5.04460087E-04  1.62425635E-03
 -1.87544103E-04  2.49908759E-04 -2.17093470E-03 -5.59151013E-04  5.94481014E-07
  2.03975525E-07  6.97298030E-01  1.29743958E-08  4.43688240E-09  1.54866915E-02
 -2.73082509E-09 -9.19424894E-10 -3.71869102E-03 -3.89235867E-04 -7.85328716E-10
 -2.38321565E-10  3.15887441E-12 -4.36509385E-12  6.19194869E-04  3.23046851E-10
  1.30238212E-10 -7.19998210E-12 -7.31983129E-12 -5.16689047E-04 -4.63903211E-10
 -1.41578561E-10 -5.31267060E-12 -6.30148859E-12  1.25320044E-09  4.02731133E-10
  2.71508869E-03  2.22727665E-10 -7.49041007E-10 -1.51341991E-10 -1.89918539E-10
  1.66638523E-11  2.64818472E-10  5.03564141E-02  6.94611783E-01  1.97315019E-07
  1.09248407E-03  1.50695671E-02  4.21245258E-09 -2.12091281E-04 -2.92545611E-03
 -7.96198156E-10  8.69544240E-11  1.22002552E-05  1.68230259E-04  1.00044496E-10
 -4.22642731E-10 -8.24857033E-11 -3.82950427E-06 -5.27322330E-05 -5.35734204E-11
  2.00677307E-10  8.89521106E-11  4.86586587E-06  6.69297359E-05  1.03761455E-11
 -5.20587697E-11  4.92957570E-05  6.79616742E-04  1.96790863E-10  3.02201379E-10
 -1.01660120E-09 -2.18497758E-10 -1.75824551E-10  2.63079482E-10  3.66349380E-10
  5.10372680E-02  7.04896256E-01 -2.52721543E-07  1.10733371E-03  1.52938770E-02
 -5.49509248E-09 -2.15129084E-04 -2.97133715E-03  1.12934504E-09  1.47537527E-10
 -1.24556968E-05 -1.72088789E-04  1.20991794E-10 -4.61981720E-10 -1.36717189E-10
  4.02224904E-06  5.56439870E-05 -4.27061805E-11  1.86337961E-10  1.54908263E-10
 -5.22301192E-06 -7.23235820E-05  1.97073997E-11 -6.85540544E-11  5.05223779E-05
  6.98139957E-04 -4.79144579E-10  5.61110312E-10 -1.88167753E-09 -4.05263668E-10
 -4.71554412E-10  3.65319898E-10  6.50710071E-10  6.94999184E-01 -5.03717883E-02
  4.62067259E-07  1.50780168E-02 -1.09281941E-03  9.91338018E-09 -2.92718212E-03
  2.12159835E-04 -1.90279469E-09  2.43618112E-10  1.68375455E-04 -1.22058339E-05
 -4.22102144E-10 -1.00755611E-10 -2.44351196E-10 -5.28415128E-05  3.83381035E-06
  2.01100983E-10  5.34197011E-11  2.31739145E-10  6.71319668E-05 -4.87379064E-06
 -5.17403212E-11 -1.06786518E-11  6.80311912E-04 -4.93233153E-05  6.32682218E-10
  6.42736817E-10 -2.16703868E-09 -5.00046819E-10 -3.99371898E-10  4.01974519E-10
  8.33629820E-10  7.04514296E-01 -5.10221378E-02 -4.87610519E-07  1.52855447E-02
 -1.10700371E-03 -1.05439663E-08 -2.96963265E-03  2.15061114E-04  2.10630305E-09
  2.90259351E-10 -1.71945091E-04  1.24499620E-05 -4.61388842E-10 -1.20969039E-10
 -2.73684019E-10  5.55350342E-05 -4.01813593E-06  1.86294589E-10  4.27573461E-11
  2.71390718E-10 -7.21219828E-05  5.21506428E-06 -6.82636392E-11 -1.97317757E-11
  6.97450012E-04 -5.04947588E-05 -7.72410590E-10  6.61108346E-10 -2.15225573E-09
  3.33127351E-10 -1.17843233E-12  1.77609225E-09  4.54730597E-11  7.06344900E-01
  5.63792202E-04  4.71991130E-07  1.54052574E-02  1.22964760E-05  1.04888325E-08
 -3.14986490E-03 -2.51524105E-06 -2.44165829E-09  5.21521458E-10  2.64367675E-04
  2.11629329E-07 -4.27399632E-10 -1.36664173E-10 -7.50570052E-10 -1.98981710E-04
 -1.59653896E-07  2.01419403E-10  6.90869592E-11  5.04422763E-10  3.68417822E-04
  2.95784054E-07 -7.67336710E-11 -2.39338103E-11  1.26831507E-03  1.01547996E-06
  2.19354156E-09 -8.35874056E-10  2.73024682E-09  6.44637508E-11  4.91308510E-10
 -2.34281745E-09 -6.87329011E-10 -6.96805181E-01 -5.63996267E-04  7.02871912E-07
 -1.51982843E-02 -1.23009385E-05  1.54340713E-08  3.10966992E-03  2.51525144E-06
 -3.49311172E-09 -8.24735489E-10  2.62047581E-04  2.11647920E-07  4.49192983E-10
  1.52764209E-10  6.31567206E-10 -1.98242971E-04 -1.59622383E-07 -1.84630645E-10
 -5.73924244E-11 -7.19529776E-10  3.67468392E-04  2.95766148E-07  8.55336426E-11
  2.99466574E-11 -1.25892320E-03 -1.01545698E-06  2.53969554E-09  2.04043633E-10
 -6.65469127E-10  1.95546937E-10  9.82479779E-11  3.80379618E-10 -1.11540467E-10
 -5.20766529E-04  7.06724739E-01  1.41087141E-07 -1.13630482E-05  1.54134988E-02
  3.14627201E-09  2.33369038E-06 -3.15146360E-03 -7.19721326E-10  1.12997703E-10
 -2.01165010E-07  2.64459634E-04  1.35514615E-10 -4.28531327E-10 -2.63962493E-10
  1.56344832E-07 -1.99010526E-04 -6.96681853E-11  2.01135448E-10  1.36122215E-10
 -2.91566953E-07  3.68454408E-04  2.32535970E-11 -7.73231140E-11 -9.73252645E-07
  1.26868673E-03  6.58498261E-10 -2.55175051E-10  8.33234973E-10  1.08082864E-10
  2.39480274E-10 -8.47292442E-10 -3.50134670E-10  6.07606228E-04 -6.96419926E-01
  2.17479996E-07  1.32479021E-05 -1.51899289E-02  4.75682122E-09 -2.69991587E-06
  3.10804754E-03 -1.08907631E-09 -3.11611421E-10 -2.22288104E-07  2.61953654E-04
 -1.52591828E-10  4.49285878E-10  1.64714439E-10  1.63075194E-07 -1.98212709E-04
  5.73673730E-11 -1.84468334E-10 -2.42014460E-10 -3.00178775E-07  3.67428979E-04
 -2.98059860E-11  8.57903514E-11  1.05899243E-06 -1.25854276E-03  7.74443119E-10
  7.87447212E-02 -3.12077276E-01  4.46245897E-01  3.27846460E-01  1.12641924E-02
 -1.66428955E-03 -1.87027547E-09 -8.56661554E-10 -5.44660091E-03  5.70065778E-09
  2.37500240E-09  1.21927172E-02 -3.44186081E-09 -9.06181250E-10  5.31660559E-03
  2.38717349E-03 -2.80653985E-09 -9.35935828E-10 -8.16986624E-10 -4.89969839E-10
  3.60830354E-03  1.34115797E-09  7.11511247E-10 -2.68441872E-10 -1.87271552E-10
  8.44149157E-04 -2.03952063E-09 -7.98205086E-10 -1.90407007E-10 -9.85957025E-11
  2.01161065E-09  7.76467472E-10  2.38786572E-04  7.87458320E-02 -3.12081695E-01
  4.46252169E-01  3.27851202E-01  1.12638607E-02 -1.66426522E-03 -1.06928740E-09
 -1.59205203E-10  5.44661085E-03  4.01632805E-09  9.09930627E-10 -1.21927605E-02
 -4.31421938E-09 -1.65475275E-09 -5.31657855E-03  2.38717903E-03  2.51063881E-09
  7.22996574E-10 -8.03476667E-10 -4.70824222E-10  3.60832225E-03 -1.54597847E-10
  1.32128299E-10 -2.21137567E-10 -1.63862466E-10  8.44021464E-04  1.31091193E-09
  2.68281606E-10 -1.91113984E-10 -1.04210307E-10  1.66117259E-09  4.67744865E-10
 -2.38469574E-04  7.95768334E-02 -3.14711856E-01  4.52869365E-01  3.30600282E-01
 -1.53529286E-06 -3.13931358E-03 -1.81694527E-09 -7.95329327E-10 -5.63015446E-04
  5.55674163E-09  2.22135432E-09  2.00808662E-03 -3.37654603E-09 -8.56499052E-10
 -8.00825274E-04  6.92365045E-05  1.68056996E-09  5.79235340E-10 -6.85961231E-10
 -4.70201831E-10  7.34635396E-04  4.05163205E-09  1.59100632E-09 -1.62529909E-10
 -1.61500343E-10 -2.60160168E-03 -5.72840465E-10 -3.87425142E-10 -1.22782187E-10
 -9.23187402E-11  2.33213861E-09  7.87793770E-10 -7.24111573E-03 -7.95757207E-02
  3.14707472E-01 -4.52863002E-01 -3.30595774E-01  1.70516874E-06  3.13927814E-03
  8.83521572E-10  8.76411732E-11 -5.62946639E-04 -3.52788163E-09 -7.29418526E-10
  2.00793797E-03  4.59184713E-09  1.80300935E-09 -8.00908149E-04 -6.91929441E-05
  1.28285126E-09  3.60469640E-10  6.78849357E-10  4.55411858E-10 -7.34590286E-04
  2.67976060E-09  6.54766154E-10  1.21925489E-10  1.39747231E-10  2.60162232E-03
  2.74454765E-10  2.64147766E-10  1.26950079E-10  9.77233852E-11 -2.19526373E-09
 -7.12826211E-10 -7.24110336E-03  3.49640667E-03 -1.23999226E-02  2.37933558E-02
  9.80637394E-03 -3.50187217E-03  3.97297910E-03  9.29270593E-09  4.56799041E-09
  2.50214475E-01 -2.24728745E-08 -1.10635288E-08 -5.94781388E-01 -6.41774937E-09
 -3.11977844E-09 -1.89510211E-01 -6.44110390E-03 -4.09029940E-10 -5.06239973E-10
  2.02208182E-10  3.71054783E-10 -7.81527479E-03  4.69949699E-09  1.25897129E-09
 -4.13771795E-10 -3.58574409E-10  2.35153711E-03 -3.97182663E-09 -1.72509839E-09
 -3.25374083E-10 -4.30689707E-10  3.64445289E-09  1.22029531E-09 -4.02295737E-03
  3.49640200E-03 -1.23999115E-02  2.37933079E-02  9.80637062E-03 -3.50148374E-03
  3.97295629E-03  1.48237423E-08  6.04843652E-09 -2.50215606E-01 -3.53855602E-08
 -1.43875577E-08  5.94784085E-01 -1.12163666E-08 -4.73200611E-09  1.89511115E-01
 -6.44109988E-03 -1.66185031E-09 -1.04634210E-09  1.88919411E-10  3.61238946E-10
 -7.81527389E-03 -6.25430048E-09 -2.42898738E-09 -4.21105605E-10 -3.58808951E-10
  2.35163464E-03  1.83231150E-09  1.86857005E-10 -3.17043617E-10 -4.27798678E-10
  2.96757614E-09  9.27324026E-10  4.02269591E-03 -1.25858094E-11  5.00446475E-10
  9.16107321E-10 -2.19187446E-09  3.41314031E-10 -5.44860253E-10  1.13769420E-02
 -2.55022012E-01  3.80293849E-09 -2.71830106E-02  6.09325996E-01 -9.01004906E-09
 -8.30232341E-03  1.86102318E-01 -2.79375324E-09  1.71687137E-09 -2.00148217E-04
  4.48656198E-03  2.55631869E-09 -8.08859998E-09  9.50729726E-10 -2.08856494E-04
  4.68175614E-03  2.08582957E-09 -6.89016110E-09 -2.21623344E-10 -6.97069039E-05
  1.56253445E-03 -5.50177778E-10  9.49877392E-10 -2.50910519E-04  5.62439410E-03
 -1.76973402E-09  3.64361938E-10 -6.39032077E-10  3.93951813E-09 -1.44966396E-09
 -2.22662882E-09  7.20440785E-10  1.13767313E-02 -2.55027651E-01 -5.35766540E-09
 -2.71825077E-02  6.09339476E-01  1.28967682E-08 -8.30217466E-03  1.86106469E-01
  3.64411254E-09  2.45695213E-09  2.00147792E-04 -4.48657182E-03  4.61004596E-09
 -1.06340878E-08  2.30988497E-09  2.08856230E-04 -4.68176364E-03  4.13607161E-09
 -9.40548639E-09  1.31797558E-10  6.97059893E-05 -1.56251473E-03  1.96439781E-10
 -4.91627016E-12 -2.50906913E-04  5.62444751E-03 -4.58003882E-10  3.02237846E-10
  7.37072090E-10  6.05669672E-09 -7.04594997E-09 -1.88395947E-09 -4.04348587E-10
 -2.55022122E-01 -1.13769627E-02  1.11403369E-08  6.09326258E-01  2.71830605E-02
 -2.65737744E-08  1.86102396E-01  8.30233853E-03 -7.89153377E-09  6.76946698E-09
  4.48656329E-03  2.00148791E-04 -8.09602190E-09 -2.54186682E-09  4.71435414E-09
  4.68175821E-03  2.08857934E-04 -6.87517900E-09 -2.10117903E-09 -5.48263992E-10
  1.56253730E-03  6.97082395E-05  9.63426226E-10  5.29677078E-10  5.62439704E-03
  2.50911258E-04 -4.12094106E-09  8.54983994E-10 -9.63098271E-10  1.04536083E-08
 -5.86273840E-09 -4.63162263E-09  5.57180424E-10 -2.55027541E-01 -1.13767100E-02
 -1.21533091E-08  6.09339212E-01  2.71824569E-02  2.92116828E-08  1.86106393E-01
  8.30215954E-03  8.20499000E-09  7.85829157E-09 -4.48657292E-03 -2.00148041E-04
 -1.06527708E-08 -4.59462220E-09  6.80177982E-09 -4.68176589E-03 -2.08858012E-04
 -9.40180578E-09 -4.13403224E-09  4.61255757E-11 -1.56251524E-03 -6.97071962E-05
  2.88542718E-12 -2.02683248E-10  5.62444485E-03  2.50906831E-04  2.25121829E-10
  9.73315296E-10  3.42022964E-10  1.49130452E-08 -1.50948554E-08 -4.85899140E-09
 -5.31827527E-09 -2.57094956E-01 -1.35524895E-02 -4.95345856E-08  6.15274513E-01
  3.24335459E-02  1.16909758E-07  1.86118945E-01  9.81106886E-03  4.48602062E-08
  7.27216835E-09  5.46458283E-04  2.88123957E-05 -8.16766957E-09 -2.61723616E-09
  2.10006849E-09  3.65780395E-04  1.92870849E-05 -6.85591140E-09 -2.13757461E-09
  1.55995459E-09 -7.57447992E-04 -3.99265849E-05  1.51336614E-09  7.28785755E-10
  2.50465622E-03  1.32029905E-04 -1.19952520E-08 -1.44007866E-09  1.03445475E-10
 -2.05120041E-08  2.17618720E-08  1.74934702E-09  1.29268615E-09  2.57089595E-01
  1.35517472E-02 -4.28965792E-08 -6.15261696E-01 -3.24317714E-02  1.00120724E-07
 -1.86115113E-01 -9.81053263E-03  4.26567388E-08 -1.07314957E-08  5.46358965E-04
  2.87991225E-05  1.07818488E-08  4.74438109E-09 -4.09832160E-09  3.65679188E-04
  1.92734460E-05  9.43645650E-09  4.24175133E-09 -1.86466135E-09 -7.57484132E-04
 -3.99314396E-05 -6.90117288E-10 -9.69441070E-11 -2.50453924E-03 -1.32012973E-04
 -1.14542575E-08  1.76309961E-10  2.06027862E-10  3.05953565E-09 -3.02876464E-09
 -1.53400954E-09 -2.37414252E-09  1.35525100E-02 -2.57095067E-01 -1.26875809E-08
 -3.24335947E-02  6.15274777E-01  3.00479322E-08 -9.81108243E-03  1.86119021E-01
  1.11450830E-08  1.35762264E-09 -2.88136648E-05  5.46460617E-04  2.63932142E-09
 -8.15755791E-09  1.37254003E-10 -1.92867710E-05  3.65781191E-04  2.12133006E-09