HF file generated by AutoMR of MOKIT
Stability RHF                                                         Gen
Number of atoms                            I                2
Info1-9                                    I   N=           9
           6           5           0           0           0         110
           7           1           2
Charge                                     I                0
Multiplicity                               I                1
Number of electrons                        I               48
Number of alpha electrons                  I               24
Number of beta electrons                   I               24
Number of basis functions                  I               66
Number of independent functions            I               66
Number of point charges in /Mol/           I                0
Number of translation vectors              I                0
Atomic numbers                             I   N=           2
          24          24
Nuclear charges                            R   N=           2
  2.40000000E+01  2.40000000E+01
Current cartesian coordinates              R   N=           6
  0.00000000E+00  0.00000000E+00  0.00000000E+00  0.00000000E+00  0.00000000E+00
  3.77945227E+00
Force Field                                I                0
Int Atom Types                             I   N=           2
           0           0
MM charges                                 R   N=           2
  0.00000000E+00  0.00000000E+00
Integer atomic weights                     I   N=           2
          52          52
Real atomic weights                        R   N=           2
  5.19405097E+01  5.19405097E+01
Atom fragment info                         I   N=           2
           1           2
Atom residue num                           I   N=           2
           0           0
Nuclear spins                              I   N=           2
           0           0
Nuclear ZEff                               R   N=           2
 -2.47200000E+01 -2.47200000E+01
Nuclear QMom                               R   N=           2
  0.00000000E+00  0.00000000E+00
Nuclear GFac                               R   N=           2
  0.00000000E+00  0.00000000E+00
MicOpt                                     I   N=           2
          -1          -1
Number of contracted shells                I               26
Number of primitive shells                 I               68
Pure/Cartesian d shells                    I                0
Pure/Cartesian f shells                    I                0
Highest angular momentum                   I                2
Largest degree of contraction              I                8
Shell types                                I   N=          26
           0           0           0           0           0           0
           1           1           1          -2          -2          -2
           1           0           0           0           0           0
           0           1           1           1          -2          -2
          -2           1
Number of primitives per shell             I   N=          26
           8           4           2           1           1           1
           6           3           1           4           1           1
           1           8           4           2           1           1
           1           6           3           1           4           1
           1           1
Shell to atom map                          I   N=          26
           1           1           1           1           1           1
           1           1           1           1           1           1
           1           2           2           2           2           2
           2           2           2           2           2           2
           2           2
Primitive exponents                        R   N=          68
  2.54477807E+05  3.81317971E+04  8.67529306E+03  2.45500998E+03  7.99162178E+02
  2.86900215E+02  1.11254132E+02  4.38641526E+01  2.79326692E+02  8.62747324E+01
  1.35557561E+01  5.69781128E+00  8.56365826E+00  1.39882968E+00  5.72881710E-01
  9.00961700E-02  3.41258900E-02  1.30643989E+03  3.09253114E+02  9.89962740E+01
  3.67569164E+01  1.45666571E+01  5.87399374E+00  2.28909997E+01  3.08550018E+00
  1.21323291E+00  4.49316810E-01  4.37200745E+01  1.23912427E+01  4.26394420E+00
  1.55252218E+00  5.37619290E-01  1.64931730E-01  1.20675000E-01  2.54477807E+05
  3.81317971E+04  8.67529306E+03  2.45500998E+03  7.99162178E+02  2.86900215E+02
  1.11254132E+02  4.38641526E+01  2.79326692E+02  8.62747324E+01  1.35557561E+01
  5.69781128E+00  8.56365826E+00  1.39882968E+00  5.72881710E-01  9.00961700E-02
  3.41258900E-02  1.30643989E+03  3.09253114E+02  9.89962740E+01  3.67569164E+01
  1.45666571E+01  5.87399374E+00  2.28909997E+01  3.08550018E+00  1.21323291E+00
  4.49316810E-01  4.37200745E+01  1.23912427E+01  4.26394420E+00  1.55252218E+00
  5.37619290E-01  1.64931730E-01  1.20675000E-01
Contraction coefficients                   R   N=          68
  2.42905340E-04  1.88435217E-03  9.80095576E-03  3.98250093E-02  1.29405439E-01
  3.06290017E-01  4.34628353E-01  2.24695624E-01 -2.43633598E-02 -1.15114953E-01
  5.50922663E-01  5.36113546E-01 -3.71230182E-01  1.16811695E+00  1.00000000E+00
  1.00000000E+00  1.00000000E+00  2.82927702E-03  2.27766281E-02  1.05645614E-01
  2.99499448E-01  4.77062456E-01  2.76542346E-01 -1.94121084E-02  3.86188757E-01
  6.76239091E-01  1.00000000E+00  2.20932528E-02  1.28014388E-01  3.86529104E-01
  6.41033014E-01  1.00000000E+00  1.00000000E+00  1.00000000E+00  2.42905340E-04
  1.88435217E-03  9.80095576E-03  3.98250093E-02  1.29405439E-01  3.06290017E-01
  4.34628353E-01  2.24695624E-01 -2.43633598E-02 -1.15114953E-01  5.50922663E-01
  5.36113546E-01 -3.71230182E-01  1.16811695E+00  1.00000000E+00  1.00000000E+00
  1.00000000E+00  2.82927702E-03  2.27766281E-02  1.05645614E-01  2.99499448E-01
  4.77062456E-01  2.76542346E-01 -1.94121084E-02  3.86188757E-01  6.76239091E-01
  1.00000000E+00  2.20932528E-02  1.28014388E-01  3.86529104E-01  6.41033014E-01
  1.00000000E+00  1.00000000E+00  1.00000000E+00
Coordinates of each shell                  R   N=          78
  0.00000000E+00  0.00000000E+00  0.00000000E+00  0.00000000E+00  0.00000000E+00
  0.00000000E+00  0.00000000E+00  0.00000000E+00  0.00000000E+00  0.00000000E+00
  0.00000000E+00  0.00000000E+00  0.00000000E+00  0.00000000E+00  0.00000000E+00
  0.00000000E+00  0.00000000E+00  0.00000000E+00  0.00000000E+00  0.00000000E+00
  0.00000000E+00  0.00000000E+00  0.00000000E+00  0.00000000E+00  0.00000000E+00
  0.00000000E+00  0.00000000E+00  0.00000000E+00  0.00000000E+00  0.00000000E+00
  0.00000000E+00  0.00000000E+00  0.00000000E+00  0.00000000E+00  0.00000000E+00
  0.00000000E+00  0.00000000E+00  0.00000000E+00  0.00000000E+00  0.00000000E+00
  0.00000000E+00  3.77945227E+00  0.00000000E+00  0.00000000E+00  3.77945227E+00
  0.00000000E+00  0.00000000E+00  3.77945227E+00  0.00000000E+00  0.00000000E+00
  3.77945227E+00  0.00000000E+00  0.00000000E+00  3.77945227E+00  0.00000000E+00
  0.00000000E+00  3.77945227E+00  0.00000000E+00  0.00000000E+00  3.77945227E+00
  0.00000000E+00  0.00000000E+00  3.77945227E+00  0.00000000E+00  0.00000000E+00
  3.77945227E+00  0.00000000E+00  0.00000000E+00  3.77945227E+00  0.00000000E+00
  0.00000000E+00  3.77945227E+00  0.00000000E+00  0.00000000E+00  3.77945227E+00
  0.00000000E+00  0.00000000E+00  3.77945227E+00
Constraint Structure                       R   N=           6
  0.00000000E+00  0.00000000E+00  0.00000000E+00  0.00000000E+00  0.00000000E+00
  3.77945227E+00
Num ILSW                                   I              100
ILSW                                       I   N=         100
           0           0           0           0           2           1
           0           0           0           0           0          -1
           0           0           0           0           0           0
           0           0           0           0           0           0
           1           1           0           0           0           0
           0           0      100000           0          -1           0
           0           0           0           0           0           0
           0           0           0           1           0           0
           0           0           1           0           0           0
           0           0           4          40           0           0
           0           0           0           0           0           0
           0           0           0           0           0           0
           0           0           0           0           0           0
           0           0           0           0           0           0
           0           0           0           0           0           0
           0           0           0           0           0           0
           0           0           0           0
Num RLSW                                   I               40
RLSW                                       R   N=          40
  1.00000000E+00  1.00000000E+00  1.00000000E+00  1.00000000E+00  1.00000000E+00
  0.00000000E+00  0.00000000E+00  1.00000000E+00  0.00000000E+00  0.00000000E+00
  0.00000000E+00  0.00000000E+00  1.00000000E+00  0.00000000E+00  0.00000000E+00
  0.00000000E+00  0.00000000E+00  1.00000000E+00  0.00000000E+00  0.00000000E+00
  0.00000000E+00  0.00000000E+00  1.00000000E+00  0.00000000E+00  0.00000000E+00
  0.00000000E+00  0.00000000E+00  1.00000000E+00  0.00000000E+00  0.00000000E+00
  0.00000000E+00  0.00000000E+00  1.00000000E+00  0.00000000E+00  0.00000000E+00
  0.00000000E+00  0.00000000E+00  0.00000000E+00  1.00000000E+00  1.00000000E+00
MxBond                                     I                1
NBond                                      I   N=           2
           1           1
IBond                                      I   N=           2
           2           1
RBond                                      R   N=           2
  3.00000000E+00  3.00000000E+00
Virial Ratio                               R      1.999806863558677E+00
SCF Energy                                 R     -2.086589605398382E+03
Total Energy                               R     -2.086589605398382E+03
S**2                                       R      5.287350679878518E+00
S**2 after annihilation                    R      1.681821024553288E+01
RMS Density                                R      4.120979887465123E-09
External E-field                           R   N=          35
  0.00000000E+00  0.00000000E+00  0.00000000E+00  0.00000000E+00  0.00000000E+00
  0.00000000E+00  0.00000000E+00  0.00000000E+00  0.00000000E+00  0.00000000E+00
  0.00000000E+00  0.00000000E+00  0.00000000E+00  0.00000000E+00  0.00000000E+00
  0.00000000E+00  0.00000000E+00  0.00000000E+00  0.00000000E+00  0.00000000E+00
  0.00000000E+00  0.00000000E+00  0.00000000E+00  0.00000000E+00  0.00000000E+00
  0.00000000E+00  0.00000000E+00  0.00000000E+00  0.00000000E+00  0.00000000E+00
  0.00000000E+00  0.00000000E+00  0.00000000E+00  0.00000000E+00  0.00000000E+00
IOpCl                                      I                0
IROHF                                      I                0
Alpha Orbital Energies                     R   N=          66
  2.00000000E+00  2.00000000E+00  2.00000000E+00  2.00000000E+00  2.00000000E+00
  2.00000000E+00  2.00000000E+00  2.00000000E+00  2.00000000E+00  2.00000000E+00
  2.00000000E+00  2.00000000E+00  2.00000000E+00  2.00000000E+00  2.00000000E+00
  2.00000000E+00  1.99914113E+00  1.99914113E+00  1.90821529E+00  1.61816031E+00
  1.61816024E+00  1.57239561E+00  1.19751354E+00  1.19751354E+00  8.02486465E-01
  8.02486465E-01  4.27604391E-01  3.81839761E-01  3.81839689E-01  9.17847063E-02
  8.58867773E-04  8.58867773E-04  0.00000000E+00  0.00000000E+00  0.00000000E+00
  0.00000000E+00  0.00000000E+00  0.00000000E+00  0.00000000E+00  0.00000000E+00
  0.00000000E+00  0.00000000E+00  0.00000000E+00  0.00000000E+00  0.00000000E+00
  0.00000000E+00  0.00000000E+00  0.00000000E+00  0.00000000E+00  0.00000000E+00
  0.00000000E+00  0.00000000E+00  0.00000000E+00  0.00000000E+00  0.00000000E+00
  0.00000000E+00  0.00000000E+00  0.00000000E+00  0.00000000E+00  0.00000000E+00
  0.00000000E+00  0.00000000E+00  0.00000000E+00  0.00000000E+00  0.00000000E+00
  0.00000000E+00
Alpha MO coefficients                      R   N=        4356
 -4.91223823E-02 -3.45790197E-04  9.98726827E-05 -3.27082248E-05  5.14405662E-04
 -1.30873730E-04  4.67384668E-08  1.75391159E-08 -1.53603376E-05 -1.17823103E-07
 -4.40711651E-08  4.44693269E-05 -3.32410760E-08 -1.30745686E-08  1.04266763E-05
  1.34782415E-05  4.49292052E-09  4.12475748E-10 -1.02964647E-10  3.69571461E-11
 -3.42246011E-05  4.60293896E-09  3.71457840E-10 -8.37735241E-11  3.43284083E-11
  2.39003074E-05  2.89566185E-09  2.86849028E-10 -4.36476804E-11  1.85868359E-11
  2.99644744E-09  0.00000000E+00  2.79506633E-04  9.96630901E-01  6.84451600E-03
 -2.14800171E-03  1.67546646E-03 -8.66406509E-04  2.56768586E-04 -5.02846247E-07
 -3.58354240E-08 -1.61331763E-04  1.23247734E-06  8.61689054E-08  3.88382336E-04
  3.67091250E-07  2.55416581E-08  3.61561683E-05 -1.45934140E-05  9.77491092E-10
  1.16405096E-10 -3.62841550E-10  1.04838589E-10  4.66049654E-05 -7.93861362E-10
  1.06712441E-11 -2.55997109E-10  6.67345003E-11 -1.63284701E-04  1.16399749E-09
  1.37796202E-10 -1.58193974E-10  4.00637513E-11  6.85355484E-09  4.01903155E-10
  3.65683398E-04  9.96630961E-01  6.84372404E-03 -2.14866303E-03  1.68034752E-03
 -8.19797495E-04  2.45082543E-04 -1.19406967E-06 -5.32577079E-07  1.60536326E-04
  2.92814545E-06  1.30681880E-06 -3.85714572E-04  8.72863954E-07  3.89530466E-07
 -3.52501293E-05 -1.33314237E-05 -1.99602264E-09 -1.02964294E-09 -4.33128172E-10
  6.48108144E-11  4.34511468E-05  2.45647417E-09  9.53527287E-10 -3.13270256E-10
  4.75967032E-11 -1.61718156E-04 -2.25062235E-09 -1.06746431E-09 -1.60618845E-10
  2.71140539E-11  1.70967046E-08  7.50872289E-09 -3.39843065E-04  4.91237861E-02
  3.28897651E-04 -1.11916278E-04  1.32692114E-04  4.31290167E-04 -1.06141179E-04
 -1.15242736E-08  6.97337085E-09 -5.02298062E-07  2.60570370E-08 -1.91343840E-08
 -6.32091865E-06  1.24937449E-08 -3.57231740E-09 -6.90978911E-06  1.21032979E-05
 -9.56920855E-09 -4.18521470E-09 -1.76103379E-10  6.50653510E-11 -2.97846394E-05
 -1.06021818E-08 -4.64958111E-09 -1.28864580E-10  4.27258547E-11  7.88105669E-06
 -6.06905172E-09 -2.69677500E-09 -9.55110550E-11  2.55522824E-11  8.85396964E-09
  3.76415304E-09 -2.44731144E-04 -2.23371349E-01  7.42691696E-01  2.19792971E-02
 -7.51157189E-03  3.53459488E-03 -1.07366625E-03  1.14988683E-05  5.08996718E-06
  4.15291310E-04 -3.04221729E-05 -1.34861323E-05  4.16485854E-03 -9.08742131E-06
 -4.03733335E-06  8.31575661E-04  1.59573260E-04  1.42908921E-08 -1.00561272E-08
 -1.83668977E-08  2.29035035E-10 -3.81892722E-04  4.32532133E-08  1.88626278E-09
 -1.75814704E-08  7.03459018E-10  4.28357172E-04  4.30234008E-08  9.51142294E-09
 -6.81966138E-09  2.83047461E-10 -1.39489044E-07 -7.47020256E-08  1.53845680E-03
  2.18379623E-01 -7.26094315E-01 -2.14887239E-02  7.33886184E-03 -3.50763906E-03
  1.06462534E-03 -4.90071272E-06 -4.15348134E-07  4.02589710E-04  1.29869897E-05
  1.11520342E-06  4.08267942E-03  3.83565301E-06  3.10006893E-07  8.13236328E-04
 -1.61026905E-04  9.12062213E-08  4.58401135E-08  1.91174531E-08 -1.42624215E-09
  3.77365892E-04  1.11676312E-07  5.01986670E-08  1.73551491E-08 -1.67169291E-09
 -4.20410495E-04  6.92926403E-08  2.88556492E-08  7.00268142E-09 -7.39927072E-10
 -1.24229519E-08 -3.28257905E-08  1.53153209E-03 -2.18400661E-01  7.26186966E-01
  2.13710130E-02 -7.62460042E-03  1.15807445E-03 -3.83943066E-04  1.15035082E-05
  5.15233265E-06  5.00347378E-04 -3.01676976E-05 -1.35477002E-05  3.76482037E-03
 -9.05123109E-06 -4.05662561E-06  8.57156306E-04 -6.29222064E-05 -9.07010949E-08
 -1.85459624E-08 -4.22623861E-08  3.34301767E-09 -1.93844626E-04 -6.75990236E-08
 -7.85042705E-09 -3.35644888E-08  1.91550692E-09  3.45969489E-04 -1.77145998E-08
  4.89785885E-09 -1.97494207E-08  1.73499800E-09 -2.19269188E-07 -8.17564829E-08
  2.90342317E-04 -2.23392586E-01  7.42784936E-01  2.18602639E-02 -7.79388483E-03
  1.23769495E-03 -4.08166489E-04  4.74135030E-06  2.95005102E-07 -5.07974993E-04
 -1.25205889E-05 -6.53140257E-07 -3.86264170E-03 -3.79700811E-06 -2.17474242E-07
 -8.77143342E-04 -5.92903030E-05  1.39450453E-07  5.28858147E-08 -4.26085653E-08
  3.63445539E-09 -2.02430376E-04  1.30484120E-07  5.41499260E-08 -3.40059309E-08
  3.06118992E-09  3.55571778E-04  6.41066827E-08  3.05032211E-08 -2.00548390E-08
  1.38444703E-09 -1.64769401E-07 -4.47983720E-08 -3.25086413E-04 -9.31914116E-04
  3.29625004E-03 -1.65044750E-03 -1.09154137E-03  3.78398483E-04 -2.24699410E-04
 -1.05044002E-03 -4.81965018E-04 -7.00458625E-01 -5.10229231E-05 -2.31468495E-05
 -1.17342771E-02 -4.01426899E-06 -1.72192357E-06  4.09526135E-03 -1.84793479E-04
 -5.08408072E-07 -2.18290574E-07  8.18798152E-10  6.18612075E-10  1.06414841E-04
  1.21211055E-07  1.06202592E-07  2.45477787E-09 -7.83039271E-10 -3.99635814E-04
 -2.70383630E-07 -1.58553607E-07  8.70644206E-10  3.98512125E-10 -1.47314401E-06
 -7.51294357E-07 -1.04157972E-03 -9.39086310E-04  3.32125866E-03 -1.66493522E-03
 -1.09971124E-03  3.61821842E-04 -2.28638678E-04 -4.51559978E-04  1.67823708E-05
  7.05593042E-01 -2.12762380E-05 -2.08120462E-07  1.18172019E-02 -1.69601966E-06
 -3.35518598E-07 -4.13177224E-03 -1.87756604E-04  2.85125528E-07  3.21968453E-08
 -1.81218702E-09 -1.57742819E-10  1.11163132E-04  1.59633230E-07  1.19910872E-07
  1.26970871E-09 -3.34945061E-10 -4.03566413E-04 -5.78948614E-09 -7.57946285E-08
  8.68912155E-10 -7.75521338E-10 -3.46344824E-07  1.80055938E-07  1.06161004E-03
  9.27383452E-04 -3.21484588E-03  1.73374023E-03  9.33212486E-04  2.28918300E-03
  5.34085823E-04  1.13076052E-03  5.14452350E-04  7.05588055E-01  5.23908325E-05
  2.34993538E-05  1.20026755E-02  3.40022205E-06  1.48068376E-06 -4.83324780E-03
  4.11908529E-04  4.69330422E-07  2.25506883E-07  2.45431599E-09 -5.77948700E-10
 -6.48523750E-04 -3.62321559E-07 -1.22002407E-07 -1.85791317E-09  4.99570888E-10
  5.42087290E-04  4.19988582E-07  1.64157994E-07  4.60725515E-10 -6.77563426E-10
  1.88221071E-06  7.92520956E-07  2.76620269E-03 -9.20873255E-04  3.19189890E-03
 -1.72298969E-03 -9.26105646E-04 -2.29209435E-03 -5.32608947E-04 -4.55812289E-04
 -2.33116308E-05  7.00458384E-01 -2.20137494E-05 -1.56911463E-06  1.19138519E-02
 -1.45970323E-06 -1.21279498E-07 -4.80413777E-03 -4.10523996E-04  1.23316648E-07
 -2.43039283E-08 -3.56802466E-09 -4.45604995E-10  6.47740134E-04 -3.64638773E-07
 -1.23583250E-07  1.70895680E-10 -2.00800252E-10 -5.39169125E-04  3.06663129E-07
  8.29901216E-08 -9.80918107E-10 -8.39381863E-11 -1.08065898E-06 -2.11149087E-07
  2.75852664E-03 -3.51287199E-06  1.31163590E-05 -1.32107139E-05 -9.44454907E-06
 -6.34963414E-07 -3.88519299E-07  6.84933140E-01 -7.54542640E-02 -1.03122471E-03
  1.47788277E-02 -1.62821898E-03  4.50141134E-06 -2.86212702E-03  3.15297431E-04
  1.31619852E-05 -1.47439457E-07  2.25005104E-04 -2.47938404E-05  2.74115437E-08
  8.54863299E-09  5.61184673E-07 -4.38093452E-05  4.86217341E-06 -1.48945152E-08
 -5.72555316E-09 -7.09826699E-07  8.15110034E-05 -9.03188464E-06  5.71595646E-09
  1.65378799E-09  6.62863773E-04 -7.31302070E-05 -2.16995191E-06 -1.56970478E-06
  5.88677971E-06 -6.02574515E-06 -4.34888319E-06  1.50959958E-06 -1.36748136E-08
  7.09709013E-01 -7.79199753E-02  4.34335627E-04  1.53166453E-02 -1.68162614E-03
 -1.75520481E-06 -2.97202629E-03  3.26268741E-04 -5.12640010E-06  2.20052808E-07
 -2.34269994E-04  2.57153065E-05  8.32907669E-09 -2.74424284E-09  3.91076404E-08
  5.22135085E-05 -5.69825755E-06 -5.01682142E-09  5.18994541E-10 -2.29400121E-07
 -9.45185233E-05  1.03275638E-05  1.44947191E-09 -4.74168706E-10  7.07296099E-04
 -7.75529490E-05 -1.68658556E-07 -2.00463912E-06  7.47973712E-06 -7.50743197E-06
 -5.35633748E-06 -7.87039961E-07 -2.92401496E-07  7.52171259E-02  6.85112167E-01
 -5.95310495E-04  1.62284770E-03  1.47828790E-02  2.64517146E-06 -3.14313960E-04
 -2.86287250E-03  7.71089650E-06 -1.68679734E-07  2.47063360E-05  2.25075572E-04
 -1.07649234E-08  2.66187321E-08  3.73523186E-07 -4.78140882E-06 -4.38693754E-05
  3.90681842E-09 -1.53765009E-08 -4.09989263E-07  8.90906104E-06  8.16038597E-05
 -2.42622964E-09  5.43307254E-09  7.27077757E-05  6.63183283E-04 -1.49566517E-06
 -1.89589106E-07  7.24624361E-07 -8.08790441E-07 -5.88342333E-07  1.13479009E-06
  8.25607100E-08  7.81481938E-02  7.09536816E-01  3.71367858E-05  1.68657540E-03
  1.53129485E-02 -9.72986462E-08 -3.27283907E-04 -2.97125073E-03 -2.03939721E-07
  1.94461971E-07 -2.58017874E-05 -2.34208036E-04  2.12157887E-09  7.99122153E-09
 -1.07385861E-07  5.77644416E-06  5.21537824E-05 -8.33712841E-10 -5.17696471E-09
  1.21567550E-08 -1.04490341E-05 -9.44278590E-05  6.32231488E-10  6.42179868E-10
  7.79646974E-05  7.06986031E-04 -6.28927703E-07 -3.57790415E-06  1.33375173E-05
 -1.33472742E-05 -9.53490596E-06 -2.55653010E-06 -5.42857230E-07  7.08616839E-01
 -8.71338673E-02 -1.06381480E-03  1.53752358E-02 -1.89073426E-03  5.28269529E-06
 -3.14169193E-03  3.86305242E-04  1.41838653E-05 -4.54991473E-07  2.64740130E-04
 -3.25590907E-05  2.85415871E-08  8.91921782E-09  7.95543648E-07 -2.37162512E-04
  2.91950545E-05 -1.61798568E-08 -4.40052953E-09 -8.02231274E-07  3.67259619E-04
 -4.52078254E-05  6.58766588E-09  1.78520587E-09  1.26085171E-03 -1.55138023E-04
 -3.41054887E-06  1.56443073E-06 -5.80238569E-06  5.65419848E-06  3.98107972E-06
  2.96931726E-06  4.54222414E-07 -6.83883404E-01  8.43368018E-02 -4.86596542E-04
 -1.48416813E-02  1.83027791E-03  2.64331606E-06  3.03817348E-03 -3.74633562E-04
  6.92733607E-06  4.88150401E-07  2.56580928E-04 -3.16350939E-05 -7.45966281E-09
  2.00830475E-09 -5.59299421E-07 -2.35458284E-04  2.90036323E-05  6.16359806E-09
 -6.31956210E-11  4.33127567E-07  3.64133958E-04 -4.48544877E-05 -2.77780708E-09
  1.23830708E-10 -1.23655388E-03  1.52389152E-04 -2.62703967E-06 -2.28476185E-06
  8.52295941E-06 -8.55561656E-06 -6.10214685E-06 -1.13682270E-06 -3.43491808E-07
  8.73634978E-02  7.08448017E-01 -6.73036020E-04  1.89544220E-03  1.53717591E-02
  3.29218489E-06 -3.87338214E-04 -3.14093935E-03  8.85728350E-06 -2.27903873E-07
  3.26337164E-05  2.64687470E-04 -1.03603225E-08  2.79705945E-08  4.50711440E-07
 -2.92102524E-05 -2.37152464E-04  4.24579924E-09 -1.50707876E-08 -4.75453707E-07
  4.52347013E-05  3.67239092E-04 -2.51513349E-09  5.49015035E-09  1.55358279E-04
  1.26068790E-03 -1.84460879E-06  2.10999268E-07 -7.68520064E-07  6.63027950E-07
  4.67612358E-07  1.47582645E-06  1.58332981E-07 -8.40980506E-02 -6.84058968E-01
 -7.83194459E-05 -1.82511173E-03 -1.48455171E-02  5.86746886E-07  3.73637087E-04
  3.03889694E-03  1.38674733E-06  2.49948152E-07  3.15582934E-05  2.56639623E-04
 -1.03768665E-09 -8.42400240E-09 -1.97589339E-07 -2.89846456E-05 -2.35472130E-04
  6.96818358E-10  4.60236797E-09  1.01465183E-07  4.48231723E-05  3.64155944E-04
  4.27885716E-10 -2.31138163E-09 -1.52151206E-04 -1.23672769E-03 -1.03266904E-06
  6.62737020E-02 -2.62552125E-01  3.75749441E-01  2.74271276E-01  1.17330860E-02
 -1.60990465E-03  9.91698672E-04  4.43939087E-04 -1.32256425E-01 -2.37269644E-03
 -1.06246127E-03  3.14207410E-01 -7.07362842E-04 -3.16107190E-04  9.88316254E-02
  3.43786327E-04 -9.82929755E-06 -2.58624850E-06 -1.16443062E-06  8.44894868E-08
  3.45232951E-03 -1.00487118E-05 -2.70227791E-06 -7.09707818E-07  5.06385643E-08
 -2.21564528E-03 -3.88951607E-06 -7.59968529E-07 -4.74108494E-07  3.73735228E-08
 -1.78913815E-05 -6.84935100E-06  2.95324304E-03  6.62807763E-02 -2.62579987E-01
  3.75790328E-01  2.74300232E-01  1.17339616E-02 -1.61109700E-03  4.08660381E-04
  2.44131322E-05  1.32275908E-01 -9.75970962E-04 -5.75738121E-05 -3.14253991E-01
 -2.94289917E-04 -1.89180719E-05 -9.88452737E-02  3.43573029E-04  1.33382782E-05
  5.10933292E-06 -1.16673425E-06  9.37917605E-08  3.45227290E-03  1.33682754E-05
  5.09409992E-06 -7.11919070E-07  6.01454727E-08 -2.21599672E-03  6.64153506E-06
  2.73771431E-06 -4.76556459E-07  3.73656758E-08 -1.33847606E-05 -3.60495511E-06
 -2.95331467E-03  6.90489592E-02 -2.71926010E-01  3.96152705E-01  2.82731954E-01
 -6.36158703E-03 -2.17892715E-03  1.08800611E-03  4.83760683E-04 -1.34989354E-01
 -2.60501758E-03 -1.15789514E-03  3.24342966E-01 -7.72964050E-04 -3.44233459E-04
  9.55454399E-02 -3.37894726E-03 -4.85557080E-07 -2.02446705E-06 -8.23751817E-07
  5.53306563E-08 -1.51092908E-03 -7.99611088E-07 -2.17539371E-06 -4.70196369E-07
  3.08699829E-08 -4.08115256E-03  1.30903703E-06 -4.27673506E-07 -2.41401695E-07
  1.85270751E-08 -1.27530564E-05 -6.91114723E-06 -7.76195101E-03 -6.90424408E-02
  2.71900223E-01 -3.96116083E-01 -2.82705987E-01  6.36446276E-03  2.18014709E-03
 -4.66522248E-04 -3.64578214E-05 -1.34977429E-01  1.11886906E-03  8.82768044E-05
  3.24314298E-01  3.28564538E-04  2.43876406E-05  9.55364279E-02  3.37844465E-03
  9.24935704E-06  4.97883494E-06  8.28249376E-07 -7.01553276E-08  1.51094388E-03
  9.16714092E-06  4.99385197E-06  4.72452653E-07 -4.09768016E-08  4.08052902E-03
  5.82462375E-06  2.81926446E-06  2.41644182E-07 -2.05193402E-08 -1.00205093E-06
 -2.98525644E-06 -7.76253261E-03 -2.31934414E-05  8.65224318E-05 -1.47633885E-04
 -9.03354536E-05  2.06407055E-05 -3.11265833E-06 -2.41312054E-01 -8.50472504E-02
 -2.17905511E-03  5.77536426E-01  2.03545123E-01  5.20073970E-03  1.72795551E-01
  6.08994393E-02  1.60845535E-03  4.02362844E-05  5.07531865E-03  1.78862485E-03
  3.82822488E-08  4.90875180E-08  4.56827890E-05  4.71085802E-03  1.66015683E-03
  5.97676463E-08  4.45267612E-08 -1.55397855E-05  2.30077466E-03  8.10820432E-04
 -1.38717640E-09 -4.76302157E-08  5.44764863E-03  1.91989473E-03  1.80223091E-05
 -3.95508182E-05  1.46411162E-04 -2.54567082E-04 -1.47855754E-04  6.62334874E-05
 -1.18985322E-06 -2.41342170E-01 -8.50490028E-02  7.74090447E-04  5.77608579E-01
  2.03549306E-01 -1.82954473E-03  1.72817129E-01  6.09007583E-02 -5.94152848E-04
  5.25036454E-05 -5.07500706E-03 -1.78854380E-03 -3.13392654E-08 -5.89955489E-08
  5.29146388E-05 -4.71046395E-03 -1.66005405E-03 -3.02649321E-08 -7.96928556E-08
 -4.45714008E-06 -2.30060727E-03 -8.10801490E-04  2.21904691E-08 -1.21735148E-08
  5.44793328E-03  1.91993208E-03 -3.06141469E-05  2.90282646E-06 -1.06523584E-05
  1.89167580E-05  1.03547303E-05 -7.42283184E-06 -2.73621002E-07  8.50476834E-02
 -2.41314543E-01 -1.82134475E-04 -2.03546142E-01  5.77542396E-01  4.37477906E-04
 -6.08998101E-02  1.72797240E-01  1.30924118E-04 -2.56454186E-06 -1.78864302E-03
  5.07547178E-03 -6.05667221E-08  4.42748842E-08 -1.86805098E-06 -1.66021007E-03
  4.71093718E-03 -1.04021879E-07  5.00319990E-08 -1.48066634E-06 -8.10830109E-04
  2.30084165E-03 -2.58534956E-08 -1.66095428E-08 -1.91991468E-03  5.44776558E-03
 -2.25345339E-06 -1.89011792E-06  6.89512576E-06 -1.24176106E-05 -6.49513240E-06
  5.98130829E-06  2.87084728E-07  8.50528275E-02 -2.41349440E-01 -2.29568420E-04
 -2.03558457E-01  5.77626012E-01  5.50396271E-04 -6.09035361E-02  1.72822207E-01
  1.66309803E-04  1.03111312E-06  1.78856166E-03 -5.07514620E-03  4.73513650E-08
 -4.20909633E-08  2.43540084E-07  1.66010115E-03 -4.71051728E-03  3.92823788E-08
 -4.95242635E-08  1.78097753E-06  8.10805806E-04 -2.30067643E-03 -3.98313835E-08
  4.71575627E-09 -1.91998108E-03  5.44809795E-03 -1.47754288E-06 -5.20966908E-06
  2.01214924E-05 -3.12568093E-05 -2.22074660E-05 -3.60442763E-06 -9.70559077E-07
  1.21245526E-03 -2.58165530E-01 -9.10547608E-04 -2.90701281E-03  6.18992231E-01
  2.17696653E-03 -8.60153652E-04  1.83137221E-01  6.67429544E-04  8.93448920E-06
  4.13796525E-06 -9.24911555E-04  1.58486575E-08  2.53524448E-08  1.14467727E-05
  5.22909225E-06 -1.15619157E-03 -3.41151886E-08  4.52858665E-08 -6.68335598E-06
  4.39314334E-06 -9.58989892E-04 -5.77102009E-09 -2.56470170E-08 -9.13363740E-06
  1.91609638E-03  2.44873884E-06 -1.44343686E-05  5.32035147E-05 -9.35036847E-05
 -5.30572043E-05  2.86265291E-05  3.12571130E-07 -1.19547728E-03  2.58135445E-01
 -7.40052591E-05  2.86637794E-03 -6.18920177E-01  1.85461875E-04  8.47998287E-04
 -1.83115911E-01  4.34632597E-05  1.74295079E-05  4.49412903E-06 -9.26040541E-04
 -7.55483727E-08  7.57889354E-08  1.64587897E-05  5.55925346E-06 -1.15725779E-03
 -5.96949232E-08  8.43270407E-08  1.05307984E-06  4.55319537E-06 -9.59466790E-04
  1.04408461E-08  1.31092986E-11  8.75130814E-06 -1.91544316E-03 -1.13036269E-05
  2.14023134E-07  1.25587134E-06  6.92611836E-06 -6.00432153E-06 -3.12972605E-05
 -2.43716196E-06 -2.58154613E-01 -1.19926305E-03 -2.08140585E-03  6.18966055E-01
  2.87542564E-03  4.98325081E-03  1.83129540E-01  8.50723128E-04  1.51686436E-03
  5.56941889E-06 -9.25072206E-04 -4.30914418E-06 -1.73380076E-08  5.95494431E-08
  1.19761448E-05 -1.15629730E-03 -5.38780312E-06  3.80054671E-08  4.60774400E-08
 -1.56609048E-05 -9.58983353E-04 -4.47610100E-06 -1.34974101E-08 -1.79798101E-08
  1.91601379E-03  8.87818885E-06 -3.70333093E-06 -2.77880422E-05  1.01671087E-04
 -1.82043010E-04 -9.96167035E-05  6.63349455E-05  1.47088867E-06  2.58138102E-01
  1.20104014E-03 -9.06927100E-04 -6.18926490E-01 -2.87967821E-03  2.18724062E-03
 -1.83117953E-01 -8.51997249E-04  6.40834576E-04  3.14344246E-05 -9.25943527E-04
 -4.27799860E-06  1.18810487E-07  3.00102017E-08  2.71988365E-05 -1.15711199E-03
 -5.35679696E-06  9.45529423E-08  5.27768432E-08  7.75362494E-06 -9.59337655E-04
 -4.46078333E-06 -1.47210462E-09  3.32994581E-10 -1.91566911E-03 -8.92022218E-06
 -2.30114215E-05  2.36664414E-03 -8.23894039E-03  1.67602974E-02  7.89454193E-03
 -6.71251562E-03  6.66836555E-04 -2.29287151E-05 -1.69612288E-05 -7.40908597E-03
  5.00728724E-05  3.96286574E-05  2.00904355E-02  1.85311713E-05  1.18704324E-05
  2.70730098E-03 -5.79636121E-03  8.89821407E-06  8.85823366E-07 -2.58277643E-07
  2.31148508E-08 -5.23664630E-03  9.77847932E-06  9.86154053E-07 -1.85883693E-07