HF file generated by AutoMR of MOKIT                                    
Stability UHF                                                         Gen                 
Number of atoms                            I                2
Info1-9                                    I   N=           9
           6           5           0           0           0         110
           7           1           2
Charge                                     I                0
Multiplicity                               I                1
Number of electrons                        I               48
Number of alpha electrons                  I               24
Number of beta electrons                   I               24
Number of basis functions                  I               90
Number of independent functions            I               90
Number of point charges in /Mol/           I                0
Number of translation vectors              I                0
Atomic numbers                             I   N=           2
          24          24
Nuclear charges                            R   N=           2
  2.40000000E+01  2.40000000E+01
Current cartesian coordinates              R   N=           6
  0.00000000E+00  0.00000000E+00  0.00000000E+00  0.00000000E+00  0.00000000E+00
  3.77945227E+00
Force Field                                I                0
Int Atom Types                             I   N=           2
           0           0
MM charges                                 R   N=           2
  0.00000000E+00  0.00000000E+00
Integer atomic weights                     I   N=           2
          52          52
Real atomic weights                        R   N=           2
  5.19405097E+01  5.19405097E+01
Atom fragment info                         I   N=           2
           1           2
Atom residue num                           I   N=           2
           0           0
Nuclear spins                              I   N=           2
           0           0
Nuclear ZEff                               R   N=           2
 -2.47200000E+01 -2.47200000E+01
Nuclear QMom                               R   N=           2
  0.00000000E+00  0.00000000E+00
Nuclear GFac                               R   N=           2
  0.00000000E+00  0.00000000E+00
MicOpt                                     I   N=           2
          -1          -1
Number of contracted shells                I               30
Number of primitive shells                 I               72
Pure/Cartesian d shells                    I                0
Pure/Cartesian f shells                    I                0
Highest angular momentum                   I                3
Largest degree of contraction              I                8
Shell types                                I   N=          30
           0           0           0           0           0           0
           1           1           1          -2          -2          -2
           1          -2          -3           0           0           0
           0           0           0           1           1           1
          -2          -2          -2           1          -2          -3
Number of primitives per shell             I   N=          30
           8           4           2           1           1           1
           6           3           1           4           1           1
           1           1           1           8           4           2
           1           1           1           6           3           1
           4           1           1           1           1           1
Shell to atom map                          I   N=          30
           1           1           1           1           1           1
           1           1           1           1           1           1
           1           1           1           2           2           2
           2           2           2           2           2           2
           2           2           2           2           2           2
Primitive exponents                        R   N=          72
  2.54477807E+05  3.81317971E+04  8.67529306E+03  2.45500998E+03  7.99162178E+02
  2.86900215E+02  1.11254132E+02  4.38641526E+01  2.79326692E+02  8.62747324E+01
  1.35557561E+01  5.69781128E+00  8.56365826E+00  1.39882968E+00  5.72881711E-01
  9.00961713E-02  3.41258851E-02  1.30643989E+03  3.09253114E+02  9.89962740E+01
  3.67569165E+01  1.45666571E+01  5.87399374E+00  2.28909997E+01  3.08550018E+00
  1.21323291E+00  4.49316807E-01  4.37200745E+01  1.23912427E+01  4.26394420E+00
  1.55252218E+00  5.37619295E-01  1.64931731E-01  1.20675000E-01  5.10000000E-02
  1.14700000E+00  2.54477807E+05  3.81317971E+04  8.67529306E+03  2.45500998E+03
  7.99162178E+02  2.86900215E+02  1.11254132E+02  4.38641526E+01  2.79326692E+02
  8.62747324E+01  1.35557561E+01  5.69781128E+00  8.56365826E+00  1.39882968E+00
  5.72881711E-01  9.00961713E-02  3.41258851E-02  1.30643989E+03  3.09253114E+02
  9.89962740E+01  3.67569165E+01  1.45666571E+01  5.87399374E+00  2.28909997E+01
  3.08550018E+00  1.21323291E+00  4.49316807E-01  4.37200745E+01  1.23912427E+01
  4.26394420E+00  1.55252218E+00  5.37619295E-01  1.64931731E-01  1.20675000E-01
  5.10000000E-02  1.14700000E+00
Contraction coefficients                   R   N=          72
  2.42904776E-04  1.88435236E-03  9.80095844E-03  3.98250087E-02  1.29405437E-01
  3.06290018E-01  4.34628350E-01  2.24695629E-01 -2.43633579E-02 -1.15114954E-01
  5.50922663E-01  5.36113547E-01 -3.71230177E-01  1.16811695E+00  1.00000000E+00
  1.00000000E+00  1.00000000E+00  2.82928007E-03  2.27766292E-02  1.05645619E-01
  2.99499449E-01  4.77062454E-01  2.76542344E-01 -1.94121061E-02  3.86188758E-01
  6.76239089E-01  1.00000000E+00  2.20932593E-02  1.28014388E-01  3.86529103E-01
  6.41033014E-01  1.00000000E+00  1.00000000E+00  1.00000000E+00  1.00000000E+00
  1.00000000E+00  2.42904776E-04  1.88435236E-03  9.80095844E-03  3.98250087E-02
  1.29405437E-01  3.06290018E-01  4.34628350E-01  2.24695629E-01 -2.43633579E-02
 -1.15114954E-01  5.50922663E-01  5.36113547E-01 -3.71230177E-01  1.16811695E+00
  1.00000000E+00  1.00000000E+00  1.00000000E+00  2.82928007E-03  2.27766292E-02
  1.05645619E-01  2.99499449E-01  4.77062454E-01  2.76542344E-01 -1.94121061E-02
  3.86188758E-01  6.76239089E-01  1.00000000E+00  2.20932593E-02  1.28014388E-01
  3.86529103E-01  6.41033014E-01  1.00000000E+00  1.00000000E+00  1.00000000E+00
  1.00000000E+00  1.00000000E+00
Coordinates of each shell                  R   N=          90
  0.00000000E+00  0.00000000E+00  0.00000000E+00  0.00000000E+00  0.00000000E+00
  0.00000000E+00  0.00000000E+00  0.00000000E+00  0.00000000E+00  0.00000000E+00
  0.00000000E+00  0.00000000E+00  0.00000000E+00  0.00000000E+00  0.00000000E+00
  0.00000000E+00  0.00000000E+00  0.00000000E+00  0.00000000E+00  0.00000000E+00
  0.00000000E+00  0.00000000E+00  0.00000000E+00  0.00000000E+00  0.00000000E+00
  0.00000000E+00  0.00000000E+00  0.00000000E+00  0.00000000E+00  0.00000000E+00
  0.00000000E+00  0.00000000E+00  0.00000000E+00  0.00000000E+00  0.00000000E+00
  0.00000000E+00  0.00000000E+00  0.00000000E+00  0.00000000E+00  0.00000000E+00
  0.00000000E+00  0.00000000E+00  0.00000000E+00  0.00000000E+00  0.00000000E+00
  0.00000000E+00  0.00000000E+00  3.77945227E+00  0.00000000E+00  0.00000000E+00
  3.77945227E+00  0.00000000E+00  0.00000000E+00  3.77945227E+00  0.00000000E+00
  0.00000000E+00  3.77945227E+00  0.00000000E+00  0.00000000E+00  3.77945227E+00
  0.00000000E+00  0.00000000E+00  3.77945227E+00  0.00000000E+00  0.00000000E+00
  3.77945227E+00  0.00000000E+00  0.00000000E+00  3.77945227E+00  0.00000000E+00
  0.00000000E+00  3.77945227E+00  0.00000000E+00  0.00000000E+00  3.77945227E+00
  0.00000000E+00  0.00000000E+00  3.77945227E+00  0.00000000E+00  0.00000000E+00
  3.77945227E+00  0.00000000E+00  0.00000000E+00  3.77945227E+00  0.00000000E+00
  0.00000000E+00  3.77945227E+00  0.00000000E+00  0.00000000E+00  3.77945227E+00
Constraint Structure                       R   N=           6
  0.00000000E+00  0.00000000E+00  0.00000000E+00  0.00000000E+00  0.00000000E+00
  3.77945227E+00
Num ILSW                                   I              100
ILSW                                       I   N=         100
           1           0           0           0           2           1
           0           0           0           0           0          -1
           0           0           0           0           0           0
           0           0           0           0           0           0
           1           1           0           0           0           0
           0           0      100000           0          -1           0
           0           0           0           0           0           0
           0           0           0           1           0           0
           0           0           1           0           0           0
           0           0           4          40           0           0
           0           0           0           0           0           0
           0           0           0           0           0           0
           0           0           0           0           0           0
           0           0           0           0           0           0
           0           0           0           0           0           0
           0           0           0           0           0           0
           0           0           0           0
Num RLSW                                   I               40
RLSW                                       R   N=          40
  1.00000000E+00  1.00000000E+00  1.00000000E+00  1.00000000E+00  1.00000000E+00
  0.00000000E+00  0.00000000E+00  1.00000000E+00  0.00000000E+00  0.00000000E+00
  0.00000000E+00  0.00000000E+00  1.00000000E+00  0.00000000E+00  0.00000000E+00
  0.00000000E+00  0.00000000E+00  1.00000000E+00  0.00000000E+00  0.00000000E+00
  0.00000000E+00  0.00000000E+00  1.00000000E+00  0.00000000E+00  0.00000000E+00
  0.00000000E+00  0.00000000E+00  1.00000000E+00  0.00000000E+00  0.00000000E+00
  0.00000000E+00  0.00000000E+00  1.00000000E+00  0.00000000E+00  0.00000000E+00
  0.00000000E+00  0.00000000E+00  0.00000000E+00  1.00000000E+00  1.00000000E+00
ECP-MxAtEC                                 I           250000
ECP-MaxLECP                                I               10
ECP-MaxAtL                                 I          2250000
ECP-MxTECP                                 I         11250000
ECP-LenNCZ                                 I                0
ECP-KFirst                                 I   N=          20
           0           0           0           0           0           0
           0           0           0           0           0           0
           0           0           0           0           0           0
           0           0
ECP-KLast                                  I   N=          20
           0           0           0           0           0           0
           0           0           0           0           0           0
           0           0           0           0           0           0
           0           0
ECP-LMax                                   I   N=           2
           0           0
ECP-LPSkip                                 I   N=           2
           1           1
ECP-RNFroz                                 R   N=           2
  0.00000000E+00  0.00000000E+00
ECP-NLP                                    I                0
ECP-CLP1                                   R      0.000000000000000E+00
ECP-CLP2                                   R      0.000000000000000E+00
ECP-ZLP                                    R      0.000000000000000E+00
MxBond                                     I                1
NBond                                      I   N=           2
           1           1
IBond                                      I   N=           2
           2           1
RBond                                      R   N=           2
  3.00000000E+00  3.00000000E+00
Virial Ratio                               R      1.999829424337988E+00
SCF Energy                                 R     -2.086592657307858E+03
Total Energy                               R     -2.086592657307858E+03
S**2                                       R      5.299223402058864E+00
S**2 after annihilation                    R      1.685508839706891E+01
RMS Density                                R      6.316625260187831E-09
External E-field                           R   N=          35
  0.00000000E+00  0.00000000E+00  0.00000000E+00  0.00000000E+00  0.00000000E+00
  0.00000000E+00  0.00000000E+00  0.00000000E+00  0.00000000E+00  0.00000000E+00
  0.00000000E+00  0.00000000E+00  0.00000000E+00  0.00000000E+00  0.00000000E+00
  0.00000000E+00  0.00000000E+00  0.00000000E+00  0.00000000E+00  0.00000000E+00
  0.00000000E+00  0.00000000E+00  0.00000000E+00  0.00000000E+00  0.00000000E+00
  0.00000000E+00  0.00000000E+00  0.00000000E+00  0.00000000E+00  0.00000000E+00
  0.00000000E+00  0.00000000E+00  0.00000000E+00  0.00000000E+00  0.00000000E+00
IOpCl                                      I                1
IROHF                                      I                0
Alpha Orbital Energies                     R   N=          90
 -2.20414556E+02 -2.20413276E+02 -2.62895535E+01 -2.61906963E+01 -2.22184412E+01
 -2.22176682E+01 -2.22176682E+01 -2.21234327E+01 -2.21207168E+01 -2.21207168E+01
 -3.48890085E+00 -3.14964667E+00 -2.29943680E+00 -2.28857978E+00 -2.28857978E+00
 -1.88580295E+00 -1.87243354E+00 -1.87243354E+00 -4.13184223E-01 -4.01541823E-01
 -4.01541823E-01 -3.98603425E-01 -3.98603425E-01 -2.29144670E-01  2.92797131E-02
  9.25813509E-02  9.25813509E-02  1.02826248E-01  1.43591004E-01  1.43591004E-01
  1.45236786E-01  1.45236786E-01  1.48094719E-01  1.85049625E-01  1.98773810E-01
  1.98773810E-01  2.22022348E-01  2.22022348E-01  2.44242116E-01  3.43832744E-01
  3.52727186E-01  3.52727186E-01  3.74893791E-01  3.74893791E-01  3.77953314E-01
  4.44813597E-01  4.44813597E-01  6.52356109E-01  6.52356109E-01  6.69653397E-01
  7.21135813E-01  7.21135813E-01  8.10180584E-01  8.31251625E-01  8.31251625E-01
  8.49411334E-01  8.49411334E-01  9.55025832E-01  1.61664114E+00  1.64782171E+00
  1.64782171E+00  1.86739404E+00  1.86739404E+00  1.98547336E+00  2.36258566E+00
  2.38403644E+00  2.39302835E+00  2.39302835E+00  2.46806668E+00  2.46806668E+00
  2.54354610E+00  2.65858092E+00  2.65858092E+00  2.71860550E+00  2.71860550E+00
  3.03906699E+00  3.29955336E+00  3.29955336E+00  3.30484947E+00  3.30484947E+00
  3.30964533E+00  3.30964533E+00  3.46707120E+00  3.54301796E+00  3.54301796E+00
  3.54348358E+00  3.54348358E+00  3.66712735E+00  3.66712735E+00  4.11147797E+00
Beta Orbital Energies                      R   N=          90
 -2.20414556E+02 -2.20413276E+02 -2.62895535E+01 -2.61906963E+01 -2.22184412E+01
 -2.22176682E+01 -2.22176682E+01 -2.21234327E+01 -2.21207168E+01 -2.21207168E+01
 -3.48890085E+00 -3.14964667E+00 -2.29943680E+00 -2.28857978E+00 -2.28857978E+00
 -1.88580295E+00 -1.87243354E+00 -1.87243354E+00 -4.13184223E-01 -4.01541823E-01
 -4.01541823E-01 -3.98603425E-01 -3.98603425E-01 -2.29144670E-01  2.92797131E-02
  9.25813509E-02  9.25813509E-02  1.02826248E-01  1.43591004E-01  1.43591004E-01
  1.45236786E-01  1.45236786E-01  1.48094719E-01  1.85049625E-01  1.98773810E-01
  1.98773810E-01  2.22022348E-01  2.22022348E-01  2.44242116E-01  3.43832744E-01
  3.52727186E-01  3.52727186E-01  3.74893791E-01  3.74893791E-01  3.77953314E-01
  4.44813597E-01  4.44813597E-01  6.52356109E-01  6.52356109E-01  6.69653397E-01
  7.21135813E-01  7.21135813E-01  8.10180584E-01  8.31251625E-01  8.31251625E-01
  8.49411334E-01  8.49411334E-01  9.55025832E-01  1.61664114E+00  1.64782171E+00
  1.64782171E+00  1.86739404E+00  1.86739404E+00  1.98547336E+00  2.36258566E+00
  2.38403644E+00  2.39302835E+00  2.39302835E+00  2.46806668E+00  2.46806668E+00
  2.54354610E+00  2.65858092E+00  2.65858092E+00  2.71860550E+00  2.71860550E+00
  3.03906699E+00  3.29955336E+00  3.29955336E+00  3.30484947E+00  3.30484947E+00
  3.30964533E+00  3.30964533E+00  3.46707120E+00  3.54301796E+00  3.54301796E+00
  3.54348358E+00  3.54348358E+00  3.66712735E+00  3.66712735E+00  4.11147797E+00
Alpha MO coefficients                      R   N=        8100
  9.97811418E-01  6.96295891E-03 -2.32809266E-03  1.60602142E-03 -1.35797333E-03
  2.95154077E-04 -1.33869772E-16 -9.52405293E-17  1.18552478E-05  1.24708840E-17
  3.99916843E-17 -3.03370500E-05 -3.05896822E-17 -9.06187601E-17  9.29726964E-05
 -1.34154841E-05  1.22133288E-16 -1.72085753E-16  7.32009388E-18  3.26299530E-17
  5.28966493E-05 -1.24873426E-16  2.44439793E-16  3.63507367E-18 -3.99224524E-17
 -2.48205409E-04 -8.40206106E-17  5.45725795E-17  3.42104207E-17  7.87450840E-17
 -7.07688321E-17  2.02850253E-16 -6.70663591E-04 -4.79817666E-05 -7.45192788E-17
 -3.17794682E-17 -1.19268619E-16 -1.93627241E-16 -3.96746521E-06  9.01956652E-17
  3.25554425E-16 -2.77050903E-16 -1.85945372E-16  1.39483450E-16 -3.77641402E-16
 -3.53848450E-04 -4.57005925E-06 -9.65106154E-07  1.07519007E-05  9.60179929E-04
 -1.46933048E-04 -4.11014925E-17  2.38095508E-16  5.15785337E-06  1.18551077E-16
  1.78202326E-17 -2.19384083E-05 -1.97977748E-16  9.50749395E-18  1.09940395E-05
  1.41591879E-05 -1.73886413E-17 -2.47116043E-16  1.89092801E-16 -1.53369531E-16
 -2.26892915E-05  9.22680443E-17  2.98121923E-16 -1.94937811E-16  3.01699810E-16
  7.77587925E-05 -1.68125635E-16 -9.54012694E-18  1.61809005E-16 -2.24563227E-16
  2.37409672E-16 -1.47700291E-16 -5.95481189E-04  8.02253957E-05  6.92165512E-17
  7.57084408E-17 -3.27215350E-17  2.41571651E-16  2.40713723E-05  3.68178368E-16
 -6.86329305E-16  3.99442118E-17  4.39793652E-16  1.39308311E-16  1.87843540E-16
  3.54063296E-04  3.63462244E-07 -2.65352314E-06  1.19312782E-05  9.61727171E-04
 -1.47083671E-04  4.06396877E-16  1.48565707E-16 -5.17171041E-06  1.45783096E-17
 -1.02094455E-16  2.20333818E-05 -8.39763026E-18  1.64882286E-16 -1.09715353E-05
  1.43423274E-05 -9.59524255E-17  5.25034114E-17  2.60384264E-17  1.07180669E-17
 -2.26903156E-05  3.00433991E-17 -3.66624240E-17 -2.18137649E-17  2.02001463E-17
  7.77364335E-05  2.11728065E-16  1.07435872E-17  7.00140728E-18 -7.25845712E-17
  6.04019882E-17 -5.40627660E-17  5.96503526E-04  8.04082848E-05 -1.02120098E-16
  5.32504849E-17 -3.55124846E-17 -1.44901191E-17 -2.41397313E-05  3.60481750E-16
 -2.67311470E-16 -1.89760436E-16 -7.28720973E-17  4.69343063E-16  1.67467083E-16
  9.97816925E-01  6.94366196E-03 -2.33624626E-03  1.61036514E-03 -1.36080722E-03
  2.95802710E-04 -2.47677706E-16  2.38860346E-17 -9.64300922E-06 -7.16035693E-17
  4.46520012E-18  3.16775656E-05  8.33814220E-17  1.25184363E-18 -9.36996847E-05
 -1.34326162E-05 -7.27775462E-17  2.45487934E-16 -4.65183937E-17  1.11277592E-16
  5.30732156E-05  7.42829633E-17 -2.70033062E-16  7.77147096E-17 -1.94201830E-16
 -2.48739995E-04  9.39517855E-18  2.02701917E-16 -9.52883493E-17  1.94292717E-16
 -1.03572863E-16 -1.68694706E-17  6.72024800E-04 -4.80832311E-05  3.75810453E-17
 -8.79066595E-17  7.70410207E-17 -3.40698329E-17  3.59760392E-06 -5.01120198E-16
 -2.09151809E-16 -7.40056588E-17 -2.21581760E-16 -1.02286460E-15 -2.93116824E-16
 -3.11642695E-01  1.03618914E+00  3.61050858E-02 -9.98819797E-03  6.08271232E-03
 -1.44176199E-03  8.99951757E-16  2.67031147E-16  1.04864826E-03 -4.47901465E-17
  2.32846635E-17  2.14114569E-04  1.18800599E-16 -2.16582728E-17 -4.81830797E-04
  1.15085440E-04  4.63365424E-17  7.19911914E-17  2.40705918E-16 -1.66051765E-17
 -2.79358046E-04 -9.17174963E-17 -1.64787494E-16 -2.67635221E-16  4.41051036E-18
  1.03712751E-03 -1.79766861E-16 -5.97835423E-17  1.91197122E-16  4.32768602E-17
 -5.43518081E-16 -3.55811022E-16  2.74879768E-03  2.15125382E-04 -3.34116372E-16
 -4.32429388E-16 -1.05203016E-16 -1.16270360E-16  2.46880730E-05 -4.64649587E-16
  8.12582920E-18  8.05629871E-17 -4.52971626E-16  2.29739907E-16  1.03180885E-16
  2.29007317E-05 -7.46146284E-05 -2.42607620E-05 -5.06685735E-05 -3.94007537E-03
  6.60111736E-04  1.62991539E-16 -8.43155283E-16 -2.97599017E-05  9.72254242E-17
  1.75588280E-16  1.32213531E-04 -2.69530158E-16 -4.11214779E-16 -9.97057362E-05
 -6.91413861E-05 -8.67746447E-17 -9.54533708E-17 -1.05836878E-16  2.76360091E-17
  1.43868687E-04  1.79674514E-16  2.31677870E-16  1.21644634E-16 -7.90846127E-17
 -2.33108558E-04 -5.56286599E-16 -5.85261356E-16 -7.78191101E-17  5.63660265E-17
  7.19824023E-16  7.40926391E-16  2.39744893E-03 -3.65065713E-04  1.27918140E-16
  2.64424629E-16  5.90349179E-17  8.44116247E-17 -1.32049386E-04  1.93745707E-16
  1.66363658E-16 -8.40607192E-17  5.82230851E-16 -6.96694151E-16  4.22329376E-16
 -2.76463032E-05  9.03030361E-05 -2.13420279E-05 -3.11484869E-05 -2.70973469E-03
  4.61906367E-04  3.66840166E-16 -6.70323457E-17  2.08378671E-05 -9.99464735E-17
 -4.60908684E-17 -1.08117015E-04  1.78188424E-16  5.80231984E-17  9.44285223E-05
 -6.10164718E-05  5.42157645E-17  7.87806546E-17 -2.28652145E-17 -1.03876105E-17
  1.21225707E-04 -4.25225844E-18 -7.08103484E-17 -3.31762475E-17  2.59591465E-17
 -1.40649574E-04  1.14945662E-16  2.93482240E-16  1.22017168E-16 -2.66544190E-17
  5.67315990E-17  4.22573717E-16 -1.63945671E-03 -2.57852664E-04  2.56599024E-16
  4.16896425E-16 -1.99258735E-16 -6.27648657E-17  1.05447221E-04  1.84583935E-16
 -1.68060050E-16 -4.84992895E-16 -5.70475897E-17  3.25525011E-17 -1.33600119E-16
 -3.12238644E-01  1.03774424E+00  3.06729441E-02 -8.18763631E-03  4.27903865E-03
 -1.03458273E-03  1.00148399E-15 -1.08833555E-16 -1.39040564E-03  8.64599464E-17
 -1.10005439E-16 -2.80993323E-04 -3.02583882E-17  2.91891739E-16  4.08668456E-04
  1.49973591E-04  2.85315725E-16  3.54830182E-16 -5.36897445E-16  1.96006434E-17
 -2.35023023E-04 -5.45920013E-16 -6.19190729E-16  4.10003290E-16 -3.13954919E-17
  7.23802255E-04  7.82607684E-16  9.80133875E-16 -2.07740868E-16  3.59107935E-17
 -3.02661616E-16 -8.01070460E-16 -1.89949394E-03  1.51473368E-04 -4.39591460E-16
 -3.97817868E-16  2.11515846E-16  5.71041217E-17  4.92602000E-06  7.43849113E-17
  2.74234738E-16 -8.64859087E-16 -5.08605138E-16 -8.02259575E-17 -9.72391852E-17
  3.43040567E-04 -1.08627015E-03  1.55463025E-04 -4.52695846E-04  2.55682283E-03
  7.84963404E-04  7.35534634E-12  5.00058582E-12  9.90867479E-01  1.86952369E-13
  1.26962140E-13  2.53595092E-02 -3.89923132E-14 -2.62615615E-14 -5.79685328E-03
  3.21701591E-04  1.15349007E-15  7.48591329E-16 -3.82683354E-18 -4.19037874E-17
 -4.76579652E-04 -1.06864212E-15 -7.36241699E-16  1.19582888E-17  4.86440089E-17
  8.13582213E-04  2.31693939E-15  1.30111884E-15 -3.40303868E-18 -1.58962157E-17
  1.62609165E-14  1.03437684E-14  4.30629017E-03  4.63295515E-04  8.00320589E-16
  3.46615411E-16 -1.38070823E-16  3.38506906E-17 -1.37470943E-05  5.42863710E-16
  1.40464112E-16 -4.26941440E-16  5.86439311E-16  2.04437096E-16  2.00596072E-16
 -1.59978249E-05 -1.51552019E-05 -2.58959115E-04  1.88509850E-04 -3.67029031E-03
 -9.22295515E-05  9.78699130E-15  2.17505514E-15 -2.23921895E-04 -6.31957175E-16
 -3.90585428E-16  3.03970217E-04  1.73047237E-15  9.05888658E-16 -5.54914386E-04
 -1.27103993E-04 -2.09814530E-16 -2.63663789E-16  1.75344065E-17 -5.86517597E-17
  5.57898044E-04  1.70302597E-16  3.40429793E-16  7.07513393E-17  1.03385439E-16
 -3.08319358E-04 -2.53249600E-16 -6.84105504E-16 -1.08137335E-16 -9.38657614E-17
 -5.50086255E-15 -3.02863624E-15  2.06908184E-03  3.43615514E-06  4.35926055E-15
  2.86907017E-15  2.14545672E-16  1.34191808E-17 -2.46836434E-04  2.85207662E-16
  7.60350367E-16 -3.83134742E-16  7.80009842E-17 -1.90201273E-16 -1.16325504E-16
 -5.84332518E-16  2.08577512E-15  3.35025686E-16 -2.60320441E-16 -1.77025254E-14
  3.16948536E-15 -3.97195308E-01  9.07810165E-01 -1.63277452E-12 -1.00852938E-02
  2.30504541E-02 -4.16957482E-14  2.08782724E-03 -4.77183580E-03  8.81087301E-15
 -7.47220188E-17 -6.49884869E-05  1.48534506E-04  5.46695413E-16  6.02651205E-16
  1.25827565E-15  5.99212894E-05 -1.36953168E-04 -5.07907979E-16 -9.81261934E-16
 -3.09996510E-15 -1.24888158E-04  2.85438264E-04 -3.90354613E-16  1.07727159E-15
 -8.63873139E-04  1.97442619E-03 -1.51253528E-14 -3.95094865E-15 -5.26481422E-05
  1.20330018E-04  1.66919201E-16 -1.07684480E-15  8.23157428E-17  9.17227955E-06
 -2.09637134E-05  6.47898237E-16  1.05331171E-16 -9.05949057E-17 -5.36587839E-16
 -1.65096720E-16  5.69543265E-16 -8.42018732E-16 -1.14857618E-15  2.27669581E-14
 -3.59644460E-15 -5.49258568E-05  1.25535852E-04  2.00396519E-14  4.45933022E-05
 -1.01920270E-04 -6.90516620E-16 -9.95636773E-05  2.27557870E-04  2.14863362E-15
 -2.40369154E-17 -6.54558440E-06  1.49602675E-05 -9.95950877E-16  3.00116840E-16
 -9.06053652E-16  1.95724406E-05 -4.47338128E-05  1.46130372E-16  9.19425096E-16
  2.40734082E-15 -7.79325313E-06  1.78118781E-05  9.37453586E-16 -1.84013961E-15
  3.03038058E-04 -6.92608962E-04 -1.27053247E-14  1.63548519E-15 -2.14337269E-04
  4.89878776E-04 -2.40937691E-16  1.36353088E-15  4.46988334E-16 -2.41834396E-05
  5.52724866E-05 -5.70408976E-16 -6.64580120E-16 -1.88193916E-17  1.85708101E-15
 -2.82764691E-15  8.78295004E-15 -2.67755108E-15  5.48821731E-15 -2.51894437E-14
 -7.26405461E-15  9.07810165E-01  3.97195308E-01 -8.74252776E-12  2.30504541E-02
  1.00852938E-02 -2.23833249E-13 -4.77183580E-03 -2.08782724E-03  5.18181060E-14
 -3.27429876E-15  1.48534506E-04  6.49884869E-05  2.48245972E-16  6.53396209E-16
  4.84626771E-15 -1.36953168E-04 -5.99212895E-05 -2.33773198E-16 -9.78499722E-16
 -8.33295181E-15  2.85438264E-04  1.24888158E-04  1.20617992E-16  4.03587758E-16
  1.97442619E-03  8.63873139E-04 -4.03563904E-14 -3.48746118E-15  1.20330018E-04
  5.26481422E-05  4.29078388E-16  5.85227024E-16  2.73720135E-16 -2.09637134E-05
 -9.17227956E-06  4.26120394E-16 -2.17096738E-16  3.66126065E-17  1.03334320E-17
  1.60956782E-16 -5.10631899E-17  2.00818016E-15 -1.63851026E-15  3.55170795E-14
  9.52916466E-16  1.25535853E-04  5.49258571E-05 -2.51363151E-14 -1.01920270E-04
 -4.45933022E-05 -3.09750685E-15  2.27557870E-04  9.95636773E-05  5.11371442E-15
  8.71085255E-16  1.49602675E-05  6.54558440E-06  9.29101238E-17  1.39700306E-16
 -5.35387126E-15 -4.47338128E-05 -1.95724406E-05 -1.19903122E-16 -3.77313115E-16
  3.28756200E-15  1.78118781E-05  7.79325313E-06  1.58411945E-17  3.00445022E-16
 -6.92608962E-04 -3.03038058E-04 -2.00335809E-14 -3.33366319E-16  4.89878776E-04
  2.14337269E-04 -4.82640568E-16 -7.89010557E-16  2.35552354E-15  5.52724866E-05
  2.41834396E-05 -6.96818592E-18  7.89660971E-17 -5.43813958E-16  1.46084798E-16
  8.86676486E-06  2.04504120E-05  1.71608203E-04 -1.64840150E-04  2.13789087E-03
  5.50267647E-05  3.23559145E-14 -7.08937942E-15  1.35484901E-04  5.87901618E-16
 -1.51511847E-16  1.71405255E-04  2.33297000E-16  7.50122511E-19 -3.59781609E-04
  6.24139583E-05  5.59955226E-17  3.65491221E-17 -7.35327262E-17  6.87800965E-17
 -3.34442604E-04 -5.83340673E-17 -8.68925803E-17  6.66845834E-17 -1.28908679E-16
  1.91700215E-04  1.67536815E-17  8.15647691E-17  1.03782579E-16  1.01004222E-16
 -4.58936477E-16 -2.09503601E-16  1.21487635E-03 -4.63087215E-06 -6.06997012E-17
 -4.00425914E-16 -3.19068389E-16 -5.50142458E-17 -1.48656507E-04 -1.64228861E-16
  9.99436521E-17 -1.40582079E-16  2.42939950E-16  6.83529406E-16  1.18635283E-17
 -4.76425035E-04  1.53487993E-03 -2.25564803E-04  3.10143350E-04 -1.48607486E-03
 -4.54382581E-04  6.16593473E-13  5.10433114E-13  9.93376630E-01  1.12883592E-14
  9.57283445E-15  1.84917821E-02 -2.20321314E-15 -2.05577805E-15 -4.09302228E-03
 -2.52802955E-04  3.62175593E-17 -1.84647436E-16 -1.39685635E-16 -1.27310571E-16
  3.12551753E-04 -1.21300665E-16  3.16991944E-16  2.34922140E-16  9.01472468E-17
 -4.74699765E-04  7.20439408E-17 -3.82956545E-16 -2.51274452E-16  4.48659279E-18
  6.75270239E-16  8.95945346E-16  2.50611840E-03 -2.66434500E-04 -2.99192844E-16
  1.89643062E-16  3.61584746E-16 -1.32266510E-17 -2.49420616E-05  1.14672753E-16
 -1.79159704E-16 -9.76301006E-17 -1.84445308E-16 -4.06022626E-16 -8.37888832E-16
  3.78227285E-17 -4.60434946E-16 -7.45639886E-16  1.62156945E-15  2.23538843E-14
 -5.66023280E-15 -1.00853610E-04 -1.10744656E-06 -8.76916768E-15 -6.37147010E-05
 -6.99633727E-07 -6.24009044E-16  1.48813268E-04  1.63407781E-06  1.01468120E-15
 -7.16562113E-16 -6.83689359E-06 -7.50740585E-08  4.81348325E-16 -2.64942709E-17
 -4.91258027E-16  3.68131948E-05  4.04235625E-07 -9.16215818E-16  2.77572997E-16
  4.02402187E-15 -1.61404636E-05 -1.77234018E-07  1.10454004E-15 -4.62522896E-16
 -4.41631101E-04 -4.84943037E-06  1.44299373E-14  3.62495043E-15 -3.06948188E-04
 -3.37051413E-06 -9.39543354E-17  7.59009166E-17  1.35409495E-16  3.92628500E-05
  4.31134621E-07 -2.48033227E-17 -1.11484159E-16  4.44542781E-17 -1.10894236E-16
  7.57244410E-16 -2.36687995E-15  1.27765317E-15  1.59236532E-15 -2.71378226E-14
  5.11416084E-15  9.93379917E-01  1.09080333E-02 -6.22143267E-13  1.82531871E-02
  2.00433257E-04 -1.10143955E-14 -3.71664455E-03 -4.08114576E-05  6.04949780E-16
  6.36541450E-16 -1.97765777E-04 -2.17161192E-06 -2.46787619E-16  1.76762395E-17
  1.84464107E-16  1.33720067E-04  1.46834349E-06 -1.70586102E-16 -2.14628255E-16
 -3.92799888E-15 -1.92803310E-04 -2.11712043E-06  2.54961400E-16  3.58236696E-16
  1.25238839E-03  1.37521345E-05  1.57042762E-14 -2.53065403E-15 -7.20773621E-05
 -7.91461806E-07 -5.21798521E-16 -4.79924583E-17 -8.54759365E-17  1.41505379E-05
  1.55383188E-07  2.78596397E-16  2.68333349E-16  1.23972493E-16 -8.58410136E-16
 -2.73703846E-16  8.13227739E-16 -5.29160989E-16 -1.65080025E-16  6.01620995E-15
  9.59515413E-16  1.10744573E-06 -1.00853608E-04 -1.42049727E-15  6.99633705E-07
 -6.37147009E-05 -5.61358274E-16 -1.63407780E-06  1.48813268E-04  3.02860585E-16
 -2.90256795E-16  7.50740583E-08 -6.83689359E-06  6.17513362E-16 -6.70751822E-16
 -6.53529959E-17 -4.04235625E-07  3.68131948E-05 -8.03711397E-16  7.25272997E-16
  2.00209655E-15  1.77234017E-07 -1.61404636E-05 -1.04731141E-16  4.52113963E-17