HF file generated by AutoMR of MOKIT
Stability RHF                                                         Gen
Number of atoms                            I                2
Info1-9                                    I   N=           9
           6           5           0           0           0         110
           7           1           2
Charge                                     I                0
Multiplicity                               I                1
Number of electrons                        I               48
Number of alpha electrons                  I               24
Number of beta electrons                   I               24
Number of basis functions                  I               90
Number of independent functions            I               90
Number of point charges in /Mol/           I                0
Number of translation vectors              I                0
Atomic numbers                             I   N=           2
          24          24
Nuclear charges                            R   N=           2
  2.40000000E+01  2.40000000E+01
Current cartesian coordinates              R   N=           6
  0.00000000E+00  0.00000000E+00  0.00000000E+00  0.00000000E+00  0.00000000E+00
  3.77945227E+00
Force Field                                I                0
Int Atom Types                             I   N=           2
           0           0
MM charges                                 R   N=           2
  0.00000000E+00  0.00000000E+00
Integer atomic weights                     I   N=           2
          52          52
Real atomic weights                        R   N=           2
  5.19405097E+01  5.19405097E+01
Atom fragment info                         I   N=           2
           1           2
Atom residue num                           I   N=           2
           0           0
Nuclear spins                              I   N=           2
           0           0
Nuclear ZEff                               R   N=           2
 -2.47200000E+01 -2.47200000E+01
Nuclear QMom                               R   N=           2
  0.00000000E+00  0.00000000E+00
Nuclear GFac                               R   N=           2
  0.00000000E+00  0.00000000E+00
MicOpt                                     I   N=           2
          -1          -1
Number of contracted shells                I               30
Number of primitive shells                 I               72
Pure/Cartesian d shells                    I                0
Pure/Cartesian f shells                    I                0
Highest angular momentum                   I                3
Largest degree of contraction              I                8
Shell types                                I   N=          30
           0           0           0           0           0           0
           1           1           1          -2          -2          -2
           1          -2          -3           0           0           0
           0           0           0           1           1           1
          -2          -2          -2           1          -2          -3
Number of primitives per shell             I   N=          30
           8           4           2           1           1           1
           6           3           1           4           1           1
           1           1           1           8           4           2
           1           1           1           6           3           1
           4           1           1           1           1           1
Shell to atom map                          I   N=          30
           1           1           1           1           1           1
           1           1           1           1           1           1
           1           1           1           2           2           2
           2           2           2           2           2           2
           2           2           2           2           2           2
Primitive exponents                        R   N=          72
  2.54477807E+05  3.81317971E+04  8.67529306E+03  2.45500998E+03  7.99162178E+02
  2.86900215E+02  1.11254132E+02  4.38641526E+01  2.79326692E+02  8.62747324E+01
  1.35557561E+01  5.69781128E+00  8.56365826E+00  1.39882968E+00  5.72881711E-01
  9.00961713E-02  3.41258851E-02  1.30643989E+03  3.09253114E+02  9.89962740E+01
  3.67569165E+01  1.45666571E+01  5.87399374E+00  2.28909997E+01  3.08550018E+00
  1.21323291E+00  4.49316807E-01  4.37200745E+01  1.23912427E+01  4.26394420E+00
  1.55252218E+00  5.37619295E-01  1.64931731E-01  1.20675000E-01  5.10000000E-02
  1.14700000E+00  2.54477807E+05  3.81317971E+04  8.67529306E+03  2.45500998E+03
  7.99162178E+02  2.86900215E+02  1.11254132E+02  4.38641526E+01  2.79326692E+02
  8.62747324E+01  1.35557561E+01  5.69781128E+00  8.56365826E+00  1.39882968E+00
  5.72881711E-01  9.00961713E-02  3.41258851E-02  1.30643989E+03  3.09253114E+02
  9.89962740E+01  3.67569165E+01  1.45666571E+01  5.87399374E+00  2.28909997E+01
  3.08550018E+00  1.21323291E+00  4.49316807E-01  4.37200745E+01  1.23912427E+01
  4.26394420E+00  1.55252218E+00  5.37619295E-01  1.64931731E-01  1.20675000E-01
  5.10000000E-02  1.14700000E+00
Contraction coefficients                   R   N=          72
  2.42904776E-04  1.88435236E-03  9.80095844E-03  3.98250087E-02  1.29405437E-01
  3.06290018E-01  4.34628350E-01  2.24695629E-01 -2.43633579E-02 -1.15114954E-01
  5.50922663E-01  5.36113547E-01 -3.71230177E-01  1.16811695E+00  1.00000000E+00
  1.00000000E+00  1.00000000E+00  2.82928007E-03  2.27766292E-02  1.05645619E-01
  2.99499449E-01  4.77062454E-01  2.76542344E-01 -1.94121061E-02  3.86188758E-01
  6.76239089E-01  1.00000000E+00  2.20932593E-02  1.28014388E-01  3.86529103E-01
  6.41033014E-01  1.00000000E+00  1.00000000E+00  1.00000000E+00  1.00000000E+00
  1.00000000E+00  2.42904776E-04  1.88435236E-03  9.80095844E-03  3.98250087E-02
  1.29405437E-01  3.06290018E-01  4.34628350E-01  2.24695629E-01 -2.43633579E-02
 -1.15114954E-01  5.50922663E-01  5.36113547E-01 -3.71230177E-01  1.16811695E+00
  1.00000000E+00  1.00000000E+00  1.00000000E+00  2.82928007E-03  2.27766292E-02
  1.05645619E-01  2.99499449E-01  4.77062454E-01  2.76542344E-01 -1.94121061E-02
  3.86188758E-01  6.76239089E-01  1.00000000E+00  2.20932593E-02  1.28014388E-01
  3.86529103E-01  6.41033014E-01  1.00000000E+00  1.00000000E+00  1.00000000E+00
  1.00000000E+00  1.00000000E+00
Coordinates of each shell                  R   N=          90
  0.00000000E+00  0.00000000E+00  0.00000000E+00  0.00000000E+00  0.00000000E+00
  0.00000000E+00  0.00000000E+00  0.00000000E+00  0.00000000E+00  0.00000000E+00
  0.00000000E+00  0.00000000E+00  0.00000000E+00  0.00000000E+00  0.00000000E+00
  0.00000000E+00  0.00000000E+00  0.00000000E+00  0.00000000E+00  0.00000000E+00
  0.00000000E+00  0.00000000E+00  0.00000000E+00  0.00000000E+00  0.00000000E+00
  0.00000000E+00  0.00000000E+00  0.00000000E+00  0.00000000E+00  0.00000000E+00
  0.00000000E+00  0.00000000E+00  0.00000000E+00  0.00000000E+00  0.00000000E+00
  0.00000000E+00  0.00000000E+00  0.00000000E+00  0.00000000E+00  0.00000000E+00
  0.00000000E+00  0.00000000E+00  0.00000000E+00  0.00000000E+00  0.00000000E+00
  0.00000000E+00  0.00000000E+00  3.77945227E+00  0.00000000E+00  0.00000000E+00
  3.77945227E+00  0.00000000E+00  0.00000000E+00  3.77945227E+00  0.00000000E+00
  0.00000000E+00  3.77945227E+00  0.00000000E+00  0.00000000E+00  3.77945227E+00
  0.00000000E+00  0.00000000E+00  3.77945227E+00  0.00000000E+00  0.00000000E+00
  3.77945227E+00  0.00000000E+00  0.00000000E+00  3.77945227E+00  0.00000000E+00
  0.00000000E+00  3.77945227E+00  0.00000000E+00  0.00000000E+00  3.77945227E+00
  0.00000000E+00  0.00000000E+00  3.77945227E+00  0.00000000E+00  0.00000000E+00
  3.77945227E+00  0.00000000E+00  0.00000000E+00  3.77945227E+00  0.00000000E+00
  0.00000000E+00  3.77945227E+00  0.00000000E+00  0.00000000E+00  3.77945227E+00
Constraint Structure                       R   N=           6
  0.00000000E+00  0.00000000E+00  0.00000000E+00  0.00000000E+00  0.00000000E+00
  3.77945227E+00
Num ILSW                                   I              100
ILSW                                       I   N=         100
           0           0           0           0           2           1
           0           0           0           0           0          -1
           0           0           0           0           0           0
           0           0           0           0           0           0
           1           1           0           0           0           0
           0           0      100000           0          -1           0
           0           0           0           0           0           0
           0           0           0           1           0           0
           0           0           1           0           0           0
           0           0           4          40           0           0
           0           0           0           0           0           0
           0           0           0           0           0           0
           0           0           0           0           0           0
           0           0           0           0           0           0
           0           0           0           0           0           0
           0           0           0           0           0           0
           0           0           0           0
Num RLSW                                   I               40
RLSW                                       R   N=          40
  1.00000000E+00  1.00000000E+00  1.00000000E+00  1.00000000E+00  1.00000000E+00
  0.00000000E+00  0.00000000E+00  1.00000000E+00  0.00000000E+00  0.00000000E+00
  0.00000000E+00  0.00000000E+00  1.00000000E+00  0.00000000E+00  0.00000000E+00
  0.00000000E+00  0.00000000E+00  1.00000000E+00  0.00000000E+00  0.00000000E+00
  0.00000000E+00  0.00000000E+00  1.00000000E+00  0.00000000E+00  0.00000000E+00
  0.00000000E+00  0.00000000E+00  1.00000000E+00  0.00000000E+00  0.00000000E+00
  0.00000000E+00  0.00000000E+00  1.00000000E+00  0.00000000E+00  0.00000000E+00
  0.00000000E+00  0.00000000E+00  0.00000000E+00  1.00000000E+00  1.00000000E+00
ECP-MxAtEC                                 I           250000
ECP-MaxLECP                                I               10
ECP-MaxAtL                                 I          2250000
ECP-MxTECP                                 I         11250000
ECP-LenNCZ                                 I                0
ECP-KFirst                                 I   N=          20
           0           0           0           0           0           0
           0           0           0           0           0           0
           0           0           0           0           0           0
           0           0
ECP-KLast                                  I   N=          20
           0           0           0           0           0           0
           0           0           0           0           0           0
           0           0           0           0           0           0
           0           0
ECP-LMax                                   I   N=           2
           0           0
ECP-LPSkip                                 I   N=           2
           1           1
ECP-RNFroz                                 R   N=           2
  0.00000000E+00  0.00000000E+00
ECP-NLP                                    I                0
ECP-CLP1                                   R      0.000000000000000E+00
ECP-CLP2                                   R      0.000000000000000E+00
ECP-ZLP                                    R      0.000000000000000E+00
MxBond                                     I                1
NBond                                      I   N=           2
           1           1
IBond                                      I   N=           2
           2           1
RBond                                      R   N=           2
  3.00000000E+00  3.00000000E+00
Virial Ratio                               R      1.999829424337988E+00
SCF Energy                                 R     -2.086592657307858E+03
Total Energy                               R     -2.086592657307858E+03
S**2                                       R      5.299223402058864E+00
S**2 after annihilation                    R      1.685508839706891E+01
RMS Density                                R      6.316625260187831E-09
External E-field                           R   N=          35
  0.00000000E+00  0.00000000E+00  0.00000000E+00  0.00000000E+00  0.00000000E+00
  0.00000000E+00  0.00000000E+00  0.00000000E+00  0.00000000E+00  0.00000000E+00
  0.00000000E+00  0.00000000E+00  0.00000000E+00  0.00000000E+00  0.00000000E+00
  0.00000000E+00  0.00000000E+00  0.00000000E+00  0.00000000E+00  0.00000000E+00
  0.00000000E+00  0.00000000E+00  0.00000000E+00  0.00000000E+00  0.00000000E+00
  0.00000000E+00  0.00000000E+00  0.00000000E+00  0.00000000E+00  0.00000000E+00
  0.00000000E+00  0.00000000E+00  0.00000000E+00  0.00000000E+00  0.00000000E+00
IOpCl                                      I                0
IROHF                                      I                0
Alpha Orbital Energies                     R   N=          90
  2.00000000E+00  2.00000000E+00  1.99999992E+00  1.99999989E+00  1.99999967E+00
  1.99999919E+00  1.99999863E+00  1.99999863E+00  1.99999862E+00  1.99999816E+00
  1.99999816E+00  1.99999623E+00  1.99999309E+00  1.99999309E+00  1.99998610E+00
  1.99998610E+00  1.99998318E+00  1.99997306E+00  1.72457417E+00  1.34184548E+00
  1.34184548E+00  1.31302642E+00  1.10007826E+00  1.10007826E+00  8.99921737E-01
  8.99921737E-01  6.86973580E-01  6.58154515E-01  6.58154515E-01  2.75425831E-01
  2.69367900E-05  1.68219531E-05  1.39007754E-05  1.39007754E-05  6.90873308E-06
  6.90873308E-06  3.77299704E-06  1.84090249E-06  1.84090249E-06  1.38141502E-06
  1.36633820E-06  1.36633820E-06  8.13120904E-07  3.32899560E-07  1.05115835E-07
  8.08435421E-08  1.51005160E-13  5.57550382E-14  6.21223648E-16  5.60441493E-16
  4.58039860E-16  4.18451930E-16  3.17282707E-16  3.05154554E-16  2.45579002E-16
  2.23514320E-16  1.92882078E-16  1.33746863E-16  1.27510188E-16  1.02853173E-16
  7.53452757E-17  4.23638567E-17  3.73590267E-17  2.90243209E-17  1.51804676E-17
  1.02694753E-17  6.49624012E-18  4.05044243E-18  2.25097211E-18  1.34315976E-18
 -1.95130139E-18 -3.87044669E-18 -6.33151105E-18 -9.99471300E-18 -2.81191245E-17
 -4.56849371E-17 -5.22932594E-17 -5.24110614E-17 -5.77551406E-17 -6.61750286E-17
 -9.73154720E-17 -1.19464309E-16 -1.62634421E-16 -1.69137368E-16 -1.80455733E-16
 -2.49359389E-16 -3.07575023E-16 -3.80428216E-16 -5.74372555E-16 -6.65830847E-16
Alpha MO coefficients                      R   N=        8100
 -7.05858313E-01 -3.89444687E-03  1.40246606E-03 -1.35598848E-03  2.77384209E-04
 -1.03787836E-04 -3.96639858E-10 -7.07404549E-11 -2.31859607E-04  1.41746480E-10
  9.52054683E-11 -2.31521826E-06  4.73886091E-11  2.96640451E-11 -5.99916248E-05
 -1.43684998E-06  5.46547228E-13  4.62020461E-13 -1.78485605E-16 -1.19493017E-16
 -2.31673306E-05  9.22145964E-13  6.49556568E-13 -8.22029771E-17  2.49439396E-17
  1.20817169E-04  8.80747875E-15  8.84164548E-14 -1.37195407E-16 -8.66888860E-17
  4.23235298E-13  7.30567070E-13  5.30465168E-05 -2.29405409E-05 -8.42241235E-14
  2.98018403E-14 -2.40870847E-17 -5.46216729E-18  1.91896856E-05  2.85098006E-13
  2.07366001E-13 -2.61426359E-16 -5.19471344E-17 -2.04373944E-16  3.53140184E-17
 -7.05858387E-01 -3.89444676E-03  1.40246316E-03 -1.35599080E-03  2.77384321E-04
 -1.03787845E-04  5.68581611E-11 -6.31917868E-11  2.31864271E-04  7.23037492E-11
  7.54944754E-11  2.31479228E-06  2.13258811E-11  2.36380611E-11  5.99914431E-05
 -1.43685052E-06 -5.78990652E-13 -4.40251474E-13 -1.71480284E-16  4.03251544E-16
 -2.31673360E-05 -7.11761177E-13 -6.12865815E-13 -1.86471075E-16  4.84125200E-17
  1.20817202E-04 -1.96016554E-13 -1.02055306E-13  5.69737805E-17 -9.48740978E-17
  1.17657015E-12  6.71235545E-13 -5.30466177E-05 -2.29405374E-05 -2.50781431E-13
 -5.70804967E-14 -1.36515187E-17 -3.73322581E-17 -1.91896851E-05  2.24435922E-13
  1.98311333E-13  3.74075525E-16  1.76574901E-17 -5.23707093E-17  4.14636089E-17
 -7.05936043E-01 -3.67366327E-03  1.73624459E-03 -1.10555292E-03  1.65025849E-03
 -3.15626806E-04 -3.09022590E-10 -3.60042782E-10 -2.77388849E-05  1.07656452E-10
  7.98846421E-11  1.35727959E-04  3.60164268E-11  2.81663365E-11 -4.42870294E-05
  1.96856763E-05  6.72610043E-13  2.76491746E-13 -6.69376991E-17  1.15478627E-17
 -5.36916842E-05  9.69929612E-13  5.19621724E-13 -2.35099341E-16  3.28482048E-18
  2.31566048E-04  1.31780686E-13 -3.28949902E-14  1.34153919E-16  2.73647357E-16
  1.03701317E-12  1.10821723E-13  9.00627480E-04  9.13248356E-05  3.34585901E-13
  1.08972238E-14  1.25932183E-16  1.51982598E-16 -1.43651775E-05  2.75791981E-13
  1.44684808E-13  6.46903638E-17  5.27044959E-17  3.48000299E-16  2.72134827E-17
  7.05935968E-01  3.67366819E-03 -1.73624004E-03  1.10555578E-03 -1.65025836E-03
  3.15626764E-04 -7.20567881E-10 -1.59916982E-10 -2.77447564E-05  1.40005749E-10
  2.50653983E-11  1.35727420E-04  5.04224464E-11  9.37685022E-12 -4.42871434E-05
 -1.96856577E-05 -6.06287727E-13 -2.61887854E-13 -1.08295415E-16  4.52795897E-16
  5.36917108E-05 -1.10661598E-12 -3.84584406E-13 -1.12125233E-16  1.92296824E-16
 -2.31566023E-04  1.96490770E-14 -6.35554621E-14 -1.27773490E-16 -9.21031374E-17
  2.36876437E-13  3.51417408E-13  9.00627458E-04 -9.13248383E-05 -6.73191111E-14
 -1.88251456E-13  1.88341869E-16 -4.06556913E-17 -1.43651924E-05  3.17177637E-13
  1.07116112E-13 -1.23396235E-16 -3.35452328E-18  8.58981602E-17  1.26894317E-16
 -3.88573513E-02  9.13478427E-02  3.68814764E-01  2.60768861E-01  1.42984217E-03
 -3.87632115E-03  6.03214354E-10 -2.19559829E-10 -2.58257773E-01 -3.52823157E-11
  1.63585826E-10  1.96355196E-01 -1.73501007E-11  5.20279092E-11  6.28010399E-02
 -2.17251688E-04  3.54600217E-13  7.70239719E-13  2.65437884E-16  7.00697198E-16
  1.16862189E-03  1.31486628E-13  1.11941317E-12 -2.14987011E-16 -5.21562338E-17
 -1.98802001E-03  3.24245641E-13  1.21719819E-13 -2.57126419E-16  9.88457834E-17
  1.57633374E-12  1.14811802E-12 -4.59901331E-03  2.60604111E-04  5.09584264E-13
  8.22964607E-14 -2.69130056E-16 -8.02219159E-16  3.63976653E-04  4.97831284E-14
  3.47120209E-13 -1.33723306E-16  8.46090055E-17 -1.12408864E-16 -8.70799862E-17
  3.88573711E-02 -9.13478912E-02 -3.68814826E-01 -2.60768904E-01 -1.42984358E-03
  3.87632157E-03 -7.16528831E-10 -2.18171183E-10 -2.58257680E-01  1.47671073E-10
  1.20198740E-10  1.96355201E-01  5.27220606E-11  3.89323646E-11  6.28010408E-02
  2.17251447E-04 -2.37880588E-13 -7.20330667E-13 -5.90534576E-17  9.76050373E-16
 -1.16862227E-03 -7.08595700E-13 -1.04322759E-12 -3.13387468E-16  5.45947866E-16
  1.98801983E-03  2.04490559E-13 -1.49093379E-13 -3.42001664E-16  7.86483111E-16
 -6.78961855E-13  9.86103826E-13 -4.59901309E-03 -2.60604114E-04  4.42218264E-13
 -1.34563575E-13 -3.67771166E-16 -5.35825759E-16  3.63976821E-04  2.17678906E-13
  3.27942910E-13 -3.60469991E-16 -2.41654716E-16  1.03826302E-16 -2.79828865E-16
  7.01264468E-02 -2.03070021E-01 -2.77599526E-01 -1.92877717E-01 -6.31579320E-03
  1.85194558E-03  2.18708751E-10  5.08205084E-11 -4.17695594E-01 -1.36414286E-10
 -3.21688468E-11 -2.21759931E-02 -4.37905061E-11 -1.03409981E-11 -3.38769299E-03
 -1.06846074E-03 -6.29621495E-13 -1.92146981E-13 -6.23533562E-17 -4.34076279E-17
 -1.70331105E-03 -9.36415549E-13 -2.78246885E-13  4.44159532E-16 -2.24069644E-17
 -7.77850185E-04 -8.90726197E-14 -4.09236873E-14 -1.29424500E-16  1.13163033E-16
 -8.63113667E-13 -2.59679962E-13 -9.84674567E-04 -2.34040708E-05 -4.08876796E-14
 -2.54892923E-14  2.03228483E-16  9.42976213E-17 -7.50071266E-04 -2.90841409E-13
 -8.91845954E-14 -2.91324447E-18  6.33656264E-17 -8.31789992E-17  2.94322273E-17
  7.01264505E-02 -2.03070003E-01 -2.77599442E-01 -1.92877657E-01 -6.31579276E-03
  1.85194470E-03  1.31002125E-10  3.13294776E-11  4.17695645E-01 -9.85935600E-11
 -4.47512604E-11  2.21759507E-02 -3.13961327E-11 -1.39137015E-11  3.38767949E-03
 -1.06846079E-03  6.06397997E-13  2.12859984E-13  2.75923528E-16 -9.16956774E-17
 -1.70331079E-03  8.51120659E-13  2.97043092E-13  2.35076324E-16 -1.43217674E-16
 -7.77850619E-04  1.40364081E-13  4.00083150E-14  1.34588909E-16 -2.31155822E-16
 -9.15317598E-13 -3.52574048E-13  9.84675545E-04 -2.34040048E-05  1.34474874E-13
  2.10908456E-14 -3.62490193E-16 -2.29236163E-16  7.50071187E-04 -2.68284891E-13
 -9.35904878E-14  3.67651876E-16  6.06762388E-17 -1.57990013E-16 -6.86644203E-18
  2.98472816E-02 -1.18177478E-01  1.70947282E-01  1.24561891E-01  6.92291031E-03
 -8.05151126E-04 -3.68371777E-10 -3.01985873E-10  6.89030494E-01  5.80481698E-11
  1.55363930E-10 -1.41021133E-01  2.15820600E-11  5.04162945E-11 -5.17376655E-02
  4.12345398E-04 -1.84937356E-13  6.51214020E-13 -2.87810301E-16  1.13547890E-15
 -6.18235776E-04 -3.44378296E-14  9.97051990E-13 -5.28007508E-16  7.05906028E-16
  1.26737618E-04 -2.23445576E-13  6.31511316E-14  3.45773343E-17  1.56974440E-16
 -8.16511722E-13  8.53976807E-13  2.06524205E-03  5.83618384E-04 -3.42571509E-13
  3.92848857E-14  4.45211244E-17 -1.72774705E-16 -2.82673020E-04 -2.31102178E-14
  3.01949046E-13  5.16057077E-17  2.98002655E-16 -1.66698551E-17  5.41520180E-17
 -2.98472738E-02  1.18177472E-01 -1.70947285E-01 -1.24561893E-01 -6.92291037E-03
  8.05151146E-04  3.99007118E-10 -1.97627025E-10  6.89030497E-01 -1.34453291E-10
  8.15262925E-11 -1.41021132E-01 -4.51217358E-11  2.69768274E-11 -5.17376653E-02
 -4.12345411E-04  2.19852799E-13 -5.89953424E-13  9.94653282E-17 -4.18871837E-16
  6.18235756E-04  5.21355711E-13 -8.47755922E-13 -3.48747367E-16 -1.32418522E-16
 -1.26737623E-04 -1.32912997E-13 -1.39892473E-13 -2.05273462E-17  8.22558016E-17
  1.63111093E-13  8.05632211E-13  2.06524206E-03 -5.83618384E-04 -3.13579698E-13
 -1.86592434E-13  1.19968485E-16  2.17232476E-16 -2.82673011E-04 -1.59271134E-13
  2.62130014E-13 -2.58624210E-16 -3.50258160E-16 -3.89766855E-16 -4.15977016E-17
 -2.11493776E-01  7.23788390E-01 -1.39323192E-01 -1.21763876E-01 -1.19696158E-03
  1.70503479E-04 -9.35491877E-10 -9.39797606E-10 -3.13838469E-01  2.01792009E-10
  2.45003820E-10  8.26588886E-02  7.15619141E-11  8.47010275E-11  2.86446946E-02
  3.23379157E-04  6.51430824E-13  9.36529787E-13  1.20266718E-16 -4.41129513E-16
  8.68877538E-05  1.31547125E-12  1.67765999E-12  4.69861967E-16 -4.75345011E-16
 -2.35983391E-04 -1.13657716E-13 -3.26574250E-14  1.74926708E-16  3.67769790E-17
 -1.15044522E-13  4.58405801E-13  2.48817963E-04 -2.19293235E-04 -2.25542375E-13
 -9.84922399E-14  3.50092889E-16 -4.76617069E-18  1.20464494E-04  3.93415382E-13
  5.02038325E-13  3.60709780E-17  1.86182469E-16  2.08835885E-16  6.25764428E-17
 -2.11493775E-01  7.23788381E-01 -1.39323192E-01 -1.21763877E-01 -1.19696156E-03
  1.70503482E-04  1.76681572E-10 -6.50765803E-11  3.13838473E-01  7.31493015E-11
  1.30316591E-10 -8.26588895E-02  2.02103752E-11  4.02401453E-11 -2.86446949E-02
  3.23379152E-04 -7.81873241E-13 -1.02215566E-12 -3.25870783E-16  9.98587740E-17
  8.68877606E-05 -8.76025824E-13 -1.30666338E-12 -3.71409345E-16 -3.66376966E-16
 -2.35983379E-04 -3.13340957E-13 -3.12985584E-13  1.42930931E-17 -2.07606022E-16
  1.87887135E-12  1.97699507E-12 -2.48817996E-04 -2.19293237E-04 -5.45130455E-13
 -5.24691836E-13 -4.05870530E-17  4.57192703E-17 -1.20464497E-04  2.62805762E-13
  3.93495243E-13 -3.99708672E-17  1.37457070E-16 -8.63000977E-17 -3.07948222E-17
  1.86861034E-09 -7.32203986E-09  1.77958776E-09  1.50322773E-09 -5.51387905E-11
 -8.11652972E-12 -6.25518911E-02  7.41315315E-01 -1.34266583E-09  2.02552090E-02
 -2.40048644E-01  8.36087098E-10  6.83352718E-03 -8.09855346E-02  2.74637521E-10
 -2.57109921E-12  1.05407064E-04 -1.24920078E-03  8.54325063E-18  1.08866654E-15
  8.79513610E-12  1.63492197E-04 -1.93757962E-03 -1.00020349E-15  1.34638692E-16
 -1.94747974E-11  1.34225134E-05 -1.59072967E-04  4.43019925E-16  6.70217831E-16
  1.23819522E-04 -1.46741060E-03 -5.86859472E-11 -2.12335365E-12  2.57806018E-05
 -3.05531214E-04 -9.77137296E-16 -7.16980577E-16  2.60705997E-12  4.83560699E-05
 -5.73077723E-04 -6.34009154E-17 -3.97569874E-16  1.97759064E-16 -3.55431500E-16
 -2.25991245E-09  8.28001339E-09 -1.97380860E-09 -1.67162992E-09  5.33721516E-11
  8.34562166E-12 -6.25518896E-02  7.41315304E-01 -1.02903949E-09  2.02552086E-02
 -2.40048642E-01  7.09857695E-10  6.83352703E-03 -8.09855340E-02  2.32632571E-10
  3.10381253E-12 -1.05407064E-04  1.24920078E-03  7.73851353E-16 -7.19976901E-16
 -8.56680147E-12 -1.63492195E-04  1.93757962E-03 -5.53888930E-16  7.84799082E-16
  1.91486572E-11 -1.34225141E-05  1.59072972E-04  7.09894361E-16  7.21897070E-16
  1.23819524E-04 -1.46741062E-03 -5.93091749E-11  1.85959286E-12 -2.57806031E-05
  3.05531223E-04  3.32449563E-16  4.18195928E-16  2.37632206E-12  4.83560697E-05
 -5.73077722E-04 -2.59772988E-16  1.17218008E-16  4.68349114E-16 -4.75837385E-17
  9.75339739E-09 -3.58355631E-08  8.05242382E-09  6.88928424E-09 -2.63266739E-10
 -3.27323757E-11  7.41315311E-01  6.25518894E-02 -6.44794751E-09 -2.40048644E-01
 -2.02552088E-02  3.56856258E-09 -8.09855345E-02 -6.83352708E-03  1.18404046E-09
 -1.30413941E-11 -1.24920078E-03 -1.05407065E-04 -1.51218925E-16  1.67948274E-15
  4.05423134E-11 -1.93757962E-03 -1.63492196E-04 -3.15754243E-16  3.65422534E-16
 -8.74361137E-11 -1.59072969E-04 -1.34225142E-05 -5.30263256E-16 -2.93242808E-16
 -1.46741061E-03 -1.23819525E-04 -2.72284281E-10 -1.06910325E-11 -3.05531217E-04
 -2.57806031E-05 -7.63593832E-16  1.00902026E-15  1.18610964E-11 -5.73077723E-04
 -4.83560699E-05  1.09474074E-15 -5.10400051E-16  5.73850910E-17 -1.28471080E-16
 -1.03503201E-08  3.66712817E-08 -7.95487131E-09 -6.84588299E-09  2.67774415E-10
  3.12547246E-11  7.41315308E-01  6.25518913E-02 -6.13004010E-09 -2.40048643E-01
 -2.02552090E-02  3.49067455E-09 -8.09855342E-02 -6.83352718E-03  1.15587276E-09
  1.41025201E-11  1.24920078E-03  1.05407064E-04 -9.89675058E-16  7.40458753E-16
 -3.91760411E-11  1.93757962E-03  1.63492197E-04 -1.04988669E-15 -1.20010853E-15
  8.78086890E-11  1.59072970E-04  1.34225135E-05 -1.10465156E-15  8.33387057E-16
 -1.46741062E-03 -1.23819522E-04 -2.72624666E-10  1.03699301E-11  3.05531220E-04
  2.57806018E-05  9.28367704E-16 -7.69222209E-16  1.12398076E-11 -5.73077723E-04
 -4.83560701E-05  1.98531818E-16 -5.20315957E-16  2.07713111E-16 -7.23110730E-17
  2.27982587E-01 -7.82905507E-01  1.71811331E-01  1.47611383E-01 -5.77243380E-03
 -6.76411440E-04 -3.42684688E-08 -1.02328870E-08 -1.35235465E-01  1.09555169E-08
  3.34946521E-09  7.64482326E-02  3.70090820E-09  1.12874663E-09  2.53297775E-02
 -2.93320299E-04  5.66114695E-11  1.73638302E-11 -1.70477220E-16  6.79718699E-16
  8.60163519E-04  8.81552953E-11  2.69039162E-11 -3.07621388E-16  2.12913044E-16
 -1.89161119E-03  6.98913245E-12  2.21004198E-12 -1.05117231E-16 -3.17656367E-16
  6.55107788E-11  2.05289484E-11 -5.88688543E-03 -2.30178330E-04  1.35035131E-11
  4.23181361E-12  5.60610666E-17 -6.83155866E-16  2.49564233E-04  2.60669819E-11
  7.95681609E-12  3.57560939E-17  9.45247545E-17 -1.54036659E-17 -1.53549886E-16
 -2.27982589E-01  7.82905514E-01 -1.71811332E-01 -1.47611384E-01  5.77243381E-03
  6.76411437E-04 -3.31563454E-08 -1.03061624E-08 -1.35235459E-01  1.08277875E-08
  3.31138726E-09  7.64482319E-02  3.64983071E-09  1.11809725E-09  2.53297772E-02
  2.93320303E-04 -5.67423964E-11 -1.72999877E-11 -1.92472252E-16 -3.80789874E-16
 -8.60163515E-04 -8.77166252E-11 -2.68511254E-11 -2.12993819E-16  2.66194598E-16
  1.89161119E-03 -7.41649213E-12 -2.20827754E-12 -7.74077420E-17  6.77168074E-16
  6.75100645E-11  2.02176334E-11 -5.88688542E-03  2.30178327E-04 -1.42736232E-11
 -4.23650559E-12  1.33084334E-16 -3.87980301E-17  2.49564231E-04  2.59369012E-11
  7.94422210E-12 -1.29218743E-16 -1.61188431E-16  1.82304394E-17 -1.90465840E-16
  2.25110087E-10 -4.40269238E-10  9.65687344E-11  8.29433809E-11 -7.51869088E-13
 -2.63478031E-13 -8.81943506E-02 -7.33743924E-01  9.68849628E-11  1.30091077E-02
  1.08230894E-01  1.45599616E-11  4.91879816E-03  4.09225550E-02  3.45428382E-12
 -4.31086689E-13 -6.90544947E-06 -5.74507804E-05 -4.49333860E-16 -5.81076309E-16
  5.27677736E-14  3.99331469E-05  3.32228769E-04  3.50781723E-16  9.96061217E-16
 -6.79689787E-14 -3.57418606E-05 -2.97358887E-04 -1.14115315E-15 -2.33137700E-15
 -1.47825920E-04 -1.22985628E-03 -9.87864602E-13  6.07942036E-14 -6.45907491E-05
 -5.37370828E-04  1.89297652E-15  1.96722465E-15 -2.74363643E-14  1.15816566E-05
  9.63550282E-05  1.09248243E-15  4.60009516E-16 -3.48050375E-16 -4.44293200E-16
  1.20606175E-10 -5.51439784E-10  8.48252002E-11  7.69642308E-11  2.00089577E-12
  2.15454988E-13  8.81943481E-02  7.33743934E-01 -3.13119678E-10 -1.30091067E-02
 -1.08230897E-01  1.49218038E-10 -4.91879783E-03 -4.09225560E-02  4.92639494E-11
 -2.38358118E-13 -6.90545458E-06 -5.74507649E-05  3.83065378E-16 -4.43110163E-16
 -4.86525555E-13  3.99331391E-05  3.32228793E-04 -6.79225710E-16 -1.58909543E-15
  4.25962208E-13 -3.57418613E-05 -2.97358885E-04  1.18258522E-15  1.57955875E-15
  1.47825926E-04  1.22985626E-03 -4.54025774E-13  2.55048274E-13 -6.45907502E-05
 -5.37370824E-04 -1.26821828E-15 -9.38445472E-16  2.65607866E-13 -1.15816542E-05
 -9.63550352E-05 -4.21646593E-16 -4.70325775E-17  9.48642663E-17  2.42881198E-16
  7.46506939E-11 -2.53222300E-10 -1.62041982E-10 -1.07848424E-10 -2.12261993E-12
  2.35049268E-12  7.33743927E-01 -8.81943482E-02  2.31895173E-10 -1.08230896E-01
  1.30091068E-02 -1.24468379E-10 -4.09225555E-02  4.91879784E-03 -4.05011950E-11
  5.72436599E-13  5.74507733E-05 -6.90545439E-06  1.65762052E-15 -8.93875824E-16
 -3.05941386E-13 -3.32228780E-04  3.99331394E-05  6.26128316E-16 -1.90620701E-16
  3.12200096E-13  2.97358886E-04 -3.57418613E-05  9.23236846E-16  5.19064537E-16
  1.22985627E-03 -1.47825926E-04  7.25069147E-13 -3.19745996E-13  5.37370827E-04