HF file generated by AutoMR of MOKIT
Stability RHF                                                         Gen
Number of atoms                            I                2
Info1-9                                    I   N=           9
           6           5           0           0           0         110
           7           1           2
Charge                                     I                0
Multiplicity                               I                1
Number of electrons                        I               48
Number of alpha electrons                  I               24
Number of beta electrons                   I               24
Number of basis functions                  I               90
Number of independent functions            I               90
Number of point charges in /Mol/           I                0
Number of translation vectors              I                0
Atomic numbers                             I   N=           2
          24          24
Nuclear charges                            R   N=           2
  2.40000000E+01  2.40000000E+01
Current cartesian coordinates              R   N=           6
  0.00000000E+00  0.00000000E+00  0.00000000E+00  0.00000000E+00  0.00000000E+00
  3.77945227E+00
Force Field                                I                0
Int Atom Types                             I   N=           2
           0           0
MM charges                                 R   N=           2
  0.00000000E+00  0.00000000E+00
Integer atomic weights                     I   N=           2
          52          52
Real atomic weights                        R   N=           2
  5.19405097E+01  5.19405097E+01
Atom fragment info                         I   N=           2
           1           2
Atom residue num                           I   N=           2
           0           0
Nuclear spins                              I   N=           2
           0           0
Nuclear ZEff                               R   N=           2
 -2.47200000E+01 -2.47200000E+01
Nuclear QMom                               R   N=           2
  0.00000000E+00  0.00000000E+00
Nuclear GFac                               R   N=           2
  0.00000000E+00  0.00000000E+00
MicOpt                                     I   N=           2
          -1          -1
Number of contracted shells                I               30
Number of primitive shells                 I               72
Pure/Cartesian d shells                    I                0
Pure/Cartesian f shells                    I                0
Highest angular momentum                   I                3
Largest degree of contraction              I                8
Shell types                                I   N=          30
           0           0           0           0           0           0
           1           1           1          -2          -2          -2
           1          -2          -3           0           0           0
           0           0           0           1           1           1
          -2          -2          -2           1          -2          -3
Number of primitives per shell             I   N=          30
           8           4           2           1           1           1
           6           3           1           4           1           1
           1           1           1           8           4           2
           1           1           1           6           3           1
           4           1           1           1           1           1
Shell to atom map                          I   N=          30
           1           1           1           1           1           1
           1           1           1           1           1           1
           1           1           1           2           2           2
           2           2           2           2           2           2
           2           2           2           2           2           2
Primitive exponents                        R   N=          72
  2.54477807E+05  3.81317971E+04  8.67529306E+03  2.45500998E+03  7.99162178E+02
  2.86900215E+02  1.11254132E+02  4.38641526E+01  2.79326692E+02  8.62747324E+01
  1.35557561E+01  5.69781128E+00  8.56365826E+00  1.39882968E+00  5.72881711E-01
  9.00961713E-02  3.41258851E-02  1.30643989E+03  3.09253114E+02  9.89962740E+01
  3.67569165E+01  1.45666571E+01  5.87399374E+00  2.28909997E+01  3.08550018E+00
  1.21323291E+00  4.49316807E-01  4.37200745E+01  1.23912427E+01  4.26394420E+00
  1.55252218E+00  5.37619295E-01  1.64931731E-01  1.20675000E-01  5.10000000E-02
  1.14700000E+00  2.54477807E+05  3.81317971E+04  8.67529306E+03  2.45500998E+03
  7.99162178E+02  2.86900215E+02  1.11254132E+02  4.38641526E+01  2.79326692E+02
  8.62747324E+01  1.35557561E+01  5.69781128E+00  8.56365826E+00  1.39882968E+00
  5.72881711E-01  9.00961713E-02  3.41258851E-02  1.30643989E+03  3.09253114E+02
  9.89962740E+01  3.67569165E+01  1.45666571E+01  5.87399374E+00  2.28909997E+01
  3.08550018E+00  1.21323291E+00  4.49316807E-01  4.37200745E+01  1.23912427E+01
  4.26394420E+00  1.55252218E+00  5.37619295E-01  1.64931731E-01  1.20675000E-01
  5.10000000E-02  1.14700000E+00
Contraction coefficients                   R   N=          72
  2.42904776E-04  1.88435236E-03  9.80095844E-03  3.98250087E-02  1.29405437E-01
  3.06290018E-01  4.34628350E-01  2.24695629E-01 -2.43633579E-02 -1.15114954E-01
  5.50922663E-01  5.36113547E-01 -3.71230177E-01  1.16811695E+00  1.00000000E+00
  1.00000000E+00  1.00000000E+00  2.82928007E-03  2.27766292E-02  1.05645619E-01
  2.99499449E-01  4.77062454E-01  2.76542344E-01 -1.94121061E-02  3.86188758E-01
  6.76239089E-01  1.00000000E+00  2.20932593E-02  1.28014388E-01  3.86529103E-01
  6.41033014E-01  1.00000000E+00  1.00000000E+00  1.00000000E+00  1.00000000E+00
  1.00000000E+00  2.42904776E-04  1.88435236E-03  9.80095844E-03  3.98250087E-02
  1.29405437E-01  3.06290018E-01  4.34628350E-01  2.24695629E-01 -2.43633579E-02
 -1.15114954E-01  5.50922663E-01  5.36113547E-01 -3.71230177E-01  1.16811695E+00
  1.00000000E+00  1.00000000E+00  1.00000000E+00  2.82928007E-03  2.27766292E-02
  1.05645619E-01  2.99499449E-01  4.77062454E-01  2.76542344E-01 -1.94121061E-02
  3.86188758E-01  6.76239089E-01  1.00000000E+00  2.20932593E-02  1.28014388E-01
  3.86529103E-01  6.41033014E-01  1.00000000E+00  1.00000000E+00  1.00000000E+00
  1.00000000E+00  1.00000000E+00
Coordinates of each shell                  R   N=          90
  0.00000000E+00  0.00000000E+00  0.00000000E+00  0.00000000E+00  0.00000000E+00
  0.00000000E+00  0.00000000E+00  0.00000000E+00  0.00000000E+00  0.00000000E+00
  0.00000000E+00  0.00000000E+00  0.00000000E+00  0.00000000E+00  0.00000000E+00
  0.00000000E+00  0.00000000E+00  0.00000000E+00  0.00000000E+00  0.00000000E+00
  0.00000000E+00  0.00000000E+00  0.00000000E+00  0.00000000E+00  0.00000000E+00
  0.00000000E+00  0.00000000E+00  0.00000000E+00  0.00000000E+00  0.00000000E+00
  0.00000000E+00  0.00000000E+00  0.00000000E+00  0.00000000E+00  0.00000000E+00
  0.00000000E+00  0.00000000E+00  0.00000000E+00  0.00000000E+00  0.00000000E+00
  0.00000000E+00  0.00000000E+00  0.00000000E+00  0.00000000E+00  0.00000000E+00
  0.00000000E+00  0.00000000E+00  3.77945227E+00  0.00000000E+00  0.00000000E+00
  3.77945227E+00  0.00000000E+00  0.00000000E+00  3.77945227E+00  0.00000000E+00
  0.00000000E+00  3.77945227E+00  0.00000000E+00  0.00000000E+00  3.77945227E+00
  0.00000000E+00  0.00000000E+00  3.77945227E+00  0.00000000E+00  0.00000000E+00
  3.77945227E+00  0.00000000E+00  0.00000000E+00  3.77945227E+00  0.00000000E+00
  0.00000000E+00  3.77945227E+00  0.00000000E+00  0.00000000E+00  3.77945227E+00
  0.00000000E+00  0.00000000E+00  3.77945227E+00  0.00000000E+00  0.00000000E+00
  3.77945227E+00  0.00000000E+00  0.00000000E+00  3.77945227E+00  0.00000000E+00
  0.00000000E+00  3.77945227E+00  0.00000000E+00  0.00000000E+00  3.77945227E+00
Constraint Structure                       R   N=           6
  0.00000000E+00  0.00000000E+00  0.00000000E+00  0.00000000E+00  0.00000000E+00
  3.77945227E+00
Num ILSW                                   I              100
ILSW                                       I   N=         100
           0           0           0           0           2           1
           0           0           0           0           0          -1
           0           0           0           0           0           0
           0           0           0           0           0           0
           1           1           0           0           0           0
           0           0      100000           0          -1           0
           0           0           0           0           0           0
           0           0           0           1           0           0
           0           0           1           0           0           0
           0           0           4          40           0           0
           0           0           0           0           0           0
           0           0           0           0           0           0
           0           0           0           0           0           0
           0           0           0           0           0           0
           0           0           0           0           0           0
           0           0           0           0           0           0
           0           0           0           0
Num RLSW                                   I               40
RLSW                                       R   N=          40
  1.00000000E+00  1.00000000E+00  1.00000000E+00  1.00000000E+00  1.00000000E+00
  0.00000000E+00  0.00000000E+00  1.00000000E+00  0.00000000E+00  0.00000000E+00
  0.00000000E+00  0.00000000E+00  1.00000000E+00  0.00000000E+00  0.00000000E+00
  0.00000000E+00  0.00000000E+00  1.00000000E+00  0.00000000E+00  0.00000000E+00
  0.00000000E+00  0.00000000E+00  1.00000000E+00  0.00000000E+00  0.00000000E+00
  0.00000000E+00  0.00000000E+00  1.00000000E+00  0.00000000E+00  0.00000000E+00
  0.00000000E+00  0.00000000E+00  1.00000000E+00  0.00000000E+00  0.00000000E+00
  0.00000000E+00  0.00000000E+00  0.00000000E+00  1.00000000E+00  1.00000000E+00
ECP-MxAtEC                                 I           250000
ECP-MaxLECP                                I               10
ECP-MaxAtL                                 I          2250000
ECP-MxTECP                                 I         11250000
ECP-LenNCZ                                 I                0
ECP-KFirst                                 I   N=          20
           0           0           0           0           0           0
           0           0           0           0           0           0
           0           0           0           0           0           0
           0           0
ECP-KLast                                  I   N=          20
           0           0           0           0           0           0
           0           0           0           0           0           0
           0           0           0           0           0           0
           0           0
ECP-LMax                                   I   N=           2
           0           0
ECP-LPSkip                                 I   N=           2
           1           1
ECP-RNFroz                                 R   N=           2
  0.00000000E+00  0.00000000E+00
ECP-NLP                                    I                0
ECP-CLP1                                   R      0.000000000000000E+00
ECP-CLP2                                   R      0.000000000000000E+00
ECP-ZLP                                    R      0.000000000000000E+00
MxBond                                     I                1
NBond                                      I   N=           2
           1           1
IBond                                      I   N=           2
           2           1
RBond                                      R   N=           2
  3.00000000E+00  3.00000000E+00
Virial Ratio                               R      1.999829424337988E+00
SCF Energy                                 R     -2.086592657307858E+03
Total Energy                               R     -2.086592657307858E+03
S**2                                       R      5.299223402058864E+00
S**2 after annihilation                    R      1.685508839706891E+01
RMS Density                                R      6.316625260187831E-09
External E-field                           R   N=          35
  0.00000000E+00  0.00000000E+00  0.00000000E+00  0.00000000E+00  0.00000000E+00
  0.00000000E+00  0.00000000E+00  0.00000000E+00  0.00000000E+00  0.00000000E+00
  0.00000000E+00  0.00000000E+00  0.00000000E+00  0.00000000E+00  0.00000000E+00
  0.00000000E+00  0.00000000E+00  0.00000000E+00  0.00000000E+00  0.00000000E+00
  0.00000000E+00  0.00000000E+00  0.00000000E+00  0.00000000E+00  0.00000000E+00
  0.00000000E+00  0.00000000E+00  0.00000000E+00  0.00000000E+00  0.00000000E+00
  0.00000000E+00  0.00000000E+00  0.00000000E+00  0.00000000E+00  0.00000000E+00
IOpCl                                      I                0
IROHF                                      I                0
Alpha Orbital Energies                     R   N=          90
  0.00000000E+00  0.00000000E+00  0.00000000E+00  0.00000000E+00  0.00000000E+00
  0.00000000E+00  0.00000000E+00  0.00000000E+00  0.00000000E+00  0.00000000E+00
  0.00000000E+00  0.00000000E+00  0.00000000E+00  0.00000000E+00  0.00000000E+00
  0.00000000E+00  0.00000000E+00  0.00000000E+00  0.00000000E+00  0.00000000E+00
  0.00000000E+00  0.00000000E+00  0.00000000E+00  0.00000000E+00  0.00000000E+00
  0.00000000E+00  0.00000000E+00  0.00000000E+00  0.00000000E+00  0.00000000E+00
  0.00000000E+00  0.00000000E+00  0.00000000E+00  0.00000000E+00  0.00000000E+00
  0.00000000E+00  0.00000000E+00  0.00000000E+00  0.00000000E+00  0.00000000E+00
  0.00000000E+00  0.00000000E+00  0.00000000E+00  0.00000000E+00  0.00000000E+00
  0.00000000E+00  0.00000000E+00  0.00000000E+00  0.00000000E+00  0.00000000E+00
  0.00000000E+00  0.00000000E+00  0.00000000E+00  0.00000000E+00  0.00000000E+00
  0.00000000E+00  0.00000000E+00  0.00000000E+00  0.00000000E+00  0.00000000E+00
  0.00000000E+00  0.00000000E+00  0.00000000E+00  0.00000000E+00  0.00000000E+00
  0.00000000E+00  0.00000000E+00  0.00000000E+00  0.00000000E+00  0.00000000E+00
  0.00000000E+00  0.00000000E+00  0.00000000E+00  0.00000000E+00  0.00000000E+00
  0.00000000E+00  0.00000000E+00  0.00000000E+00  0.00000000E+00  0.00000000E+00
  0.00000000E+00  0.00000000E+00  0.00000000E+00  0.00000000E+00  0.00000000E+00
  0.00000000E+00  0.00000000E+00  0.00000000E+00  0.00000000E+00  0.00000000E+00
Alpha MO coefficients                      R   N=        8100
 -6.96045137E-01 -3.79860752E-03  1.37847432E-03 -1.34179307E-03  2.54598312E-04
 -9.93818753E-05 -1.21113877E-11 -3.07885448E-11 -2.49710983E-04 -1.49634909E-11
  1.38157435E-11  6.14075086E-06 -4.33295196E-12  4.55394787E-12 -5.61372511E-05
 -1.52426922E-06 -5.23299752E-14  6.98032764E-14  4.32028207E-18  1.09145022E-17
 -2.23771081E-05 -1.02629120E-13  1.40325631E-13  2.71549953E-18  7.17208672E-18
  1.17669418E-04 -1.84887492E-14  1.38110396E-14  1.48194518E-18  3.98975330E-18
 -1.77009634E-13  1.23372844E-13  4.06873506E-05 -2.42154555E-05 -8.00012962E-15
  1.50356539E-14  1.05713135E-19  2.57930065E-19  1.94841348E-05 -1.89083514E-14
  3.15787505E-14  1.11318657E-19  8.64185613E-20 -3.25243946E-20  8.93433389E-20
 -7.15563209E-01 -3.90056399E-03  1.42538664E-03 -1.37319115E-03  3.00349011E-04
 -1.08200372E-04  3.12793857E-11 -5.57395474E-11  2.49853104E-04 -5.43060321E-12
  1.61376201E-11 -9.06898098E-06 -1.97069602E-12  5.47064145E-12  5.76099325E-05
 -1.09520583E-06  4.72483052E-14 -9.47911343E-14  1.86729987E-19  4.61135040E-19
 -2.36602530E-05  6.26261706E-14 -1.07843311E-13 -4.50891060E-20 -4.36184377E-20
  1.23979590E-04  9.05760216E-15 -3.73115707E-15  8.26942988E-20  2.17142779E-19
 -1.43814654E-14  6.65249525E-14 -6.56342187E-05 -2.16742844E-05  3.23419676E-15
 -1.87615610E-14 -2.14451217E-21  2.06621598E-22 -1.89808805E-05 -2.27410001E-14
  4.16508463E-14 -1.26484799E-20 -4.68698754E-20 -1.55967950E-20  1.26448781E-20
 -7.15621352E-01 -3.74053668E-03  1.71530571E-03 -1.15202593E-03  1.65360415E-03
 -3.16524863E-04  3.70957566E-11 -4.06220136E-11 -9.18020399E-06 -2.61545104E-11
  5.80312735E-12  1.06324066E-04 -8.32682031E-12  2.27433185E-12 -5.42812339E-05
  1.97585745E-05 -8.25369555E-14  4.21429760E-14 -1.60402837E-17 -1.09134292E-17
 -5.41314381E-05 -1.96435052E-13  8.60601476E-14 -1.07890345E-17 -7.41046599E-18
  2.33370254E-04 -1.34754000E-14  3.38061432E-15 -5.91281347E-18 -4.01490473E-18
 -1.88452924E-13  2.76225828E-14  9.01657885E-04  9.09555211E-05 -5.30079570E-16
  1.43823932E-14 -3.88440527E-19 -2.82245630E-19 -1.40202571E-05 -3.70394836E-14
  2.08953081E-14  1.30315643E-20 -1.73315338E-20 -4.92491895E-20  1.07292619E-19
  6.96104905E-01  3.63408265E-03 -1.67659204E-03  1.11463332E-03 -1.64607695E-03
  3.13761869E-04  3.75659637E-11 -5.24719369E-11 -2.28494974E-06 -1.03765524E-11
  1.28141694E-11  1.06115558E-04 -3.53955094E-12  4.41348009E-12 -5.27282021E-05
 -1.97143841E-05  9.18754254E-14 -6.62969237E-14 -2.83082743E-19 -4.80421787E-19
  5.34428331E-05  1.09650798E-13 -7.55578777E-14 -2.21963452E-19  2.49959957E-20
 -2.30091500E-04  2.17374244E-14  3.53024754E-15 -1.89431859E-19 -2.18123597E-19
 -9.73011044E-14  4.38380326E-14  9.00194224E-04 -9.16132447E-05  3.96000168E-14
 -1.80273417E-14 -4.88849203E-20  3.45999931E-21 -1.48109017E-05 -3.85752934E-14
  2.88204212E-14  6.51713787E-20  4.86616428E-20 -9.54038628E-22  1.58041105E-21
 -6.21548472E-02  1.75707187E-01  2.83660054E-01  1.98234508E-01  6.51358442E-03
 -1.82514862E-03 -7.73120470E-11 -6.87156698E-11  4.29943401E-01  3.14586138E-11
 -2.30295763E-11  1.25467053E-02  1.04471556E-11 -6.05886046E-12  4.11015638E-04
  9.01836413E-04  7.72806258E-14 -1.29317795E-13 -8.86186337E-17  4.69707654E-17
  1.74064608E-03  2.32372629E-13 -2.01750145E-13  4.98939466E-17  2.01542962E-17
  7.55246206E-04 -1.79339103E-15 -5.82041327E-14  7.23723590E-17  1.42345518E-17
  1.07444119E-13 -4.13662115E-13  1.01099067E-03  3.37361917E-05 -3.69787882E-14
 -2.19756167E-14 -1.46257929E-17 -1.61062105E-19  8.13201988E-04  4.57328835E-14
 -5.03382689E-14 -3.17237353E-18 -3.49035293E-18 -1.67936619E-17  1.81823820E-17
 -6.21584160E-02  1.75707803E-01  2.83611239E-01  1.98309456E-01  6.17800546E-03
 -1.88288379E-03  5.51074324E-11  2.65043949E-11 -4.29949760E-01  1.06536402E-11
 -2.86909562E-11 -1.25307356E-02  2.74753534E-12 -9.07812128E-12 -4.20606389E-04
  1.06294649E-03 -1.14684757E-13  1.66587530E-13 -8.20652202E-17  2.17292655E-17
  1.46512076E-03 -1.03472546E-13  1.72042588E-13  8.83570625E-17  9.65854823E-18
  7.87542504E-04 -4.73364257E-14  1.33204312E-14 -3.15592449E-17 -3.75255074E-18
  2.53908462E-13 -9.82137250E-14 -7.30615037E-04  2.48023998E-05 -7.53968824E-14
 -3.21394029E-14  1.66145316E-17  1.98933783E-18 -6.03708590E-04  3.91701182E-14
 -7.66528625E-14 -1.01164193E-17  2.58469347E-19  1.39816941E-17 -1.01462706E-17
 -7.51162663E-03 -1.98354836E-02  4.21987533E-01  3.02448834E-01  3.60284516E-03
 -3.84788198E-03 -1.72638994E-10  6.48169705E-13  1.66909172E-02  3.52118035E-11
  1.11163200E-11  9.96355647E-02  1.27966705E-11  3.32492767E-12  3.03481368E-02
 -6.81709379E-05  9.90689008E-14  2.13089648E-14 -1.25521401E-16 -6.64886807E-18
  9.41568740E-04  3.07310244E-13  6.10858366E-14  2.93866455E-17 -1.79025980E-17
 -1.95585222E-03 -1.88422375E-14  4.74285138E-15  5.06370449E-17 -5.08005334E-18
  1.49228904E-14  8.06990104E-14 -4.23512631E-03  5.00805914E-04 -1.98056427E-14
 -1.12827985E-14 -1.46846443E-17 -9.22796628E-19  2.19378512E-04  6.00113830E-14
  9.57590281E-15  4.57117384E-18 -9.08525401E-19 -2.47529313E-17  3.16885630E-17
  7.51505908E-03  1.98133280E-02 -4.21980065E-01 -3.02316665E-01 -3.97221160E-03
  4.17811506E-03 -3.61105214E-11  1.97895205E-11  1.66872087E-02  1.77253286E-11
 -8.93056310E-13  9.96770058E-02  5.74839285E-12 -4.52510414E-13  3.01382617E-02
 -4.48763111E-05 -1.49751590E-13 -1.73179919E-14  1.08363700E-16 -3.47439540E-17
 -9.04405603E-04 -1.60082565E-13 -1.79352259E-14 -1.31836035E-16 -2.49057087E-17
  2.01554447E-03 -3.72828652E-14 -1.60516946E-14  2.78127883E-17  7.87817030E-18
  2.65935419E-13  4.59832431E-14 -3.94581455E-03 -4.52517457E-04 -1.22012049E-13
 -1.32408803E-14 -3.48660898E-18 -1.97714612E-18  2.19115647E-04  5.35676785E-14
  5.91253933E-15  1.52730522E-17  4.15252669E-18 -2.51456937E-17  2.24560654E-17
  2.01578078E-02 -6.74448592E-02  2.49431276E-04  5.60925074E-04  6.11186129E-03
  8.59898534E-04 -3.61009719E-11  1.20417789E-10  7.45116739E-01 -8.89753679E-13
 -3.45291939E-11 -1.96102641E-01  1.91447332E-13 -1.19310332E-11 -6.95919469E-02
  2.20050657E-04 -3.24777652E-14 -1.22007185E-13 -1.54897815E-16 -9.98898060E-17
 -1.08209030E-03 -2.39016958E-14 -3.11215265E-13  2.76098794E-17 -6.54952814E-17
  1.12392210E-03 -2.14935472E-14 -3.15318417E-15  2.48305906E-17 -3.93642471E-17
 -1.26080057E-13 -1.33325329E-13  4.42664332E-03  5.33987663E-04 -2.48154551E-14
  7.48479021E-15  1.20081732E-18 -2.91903042E-18 -3.19296056E-04 -7.99776891E-15
 -6.54742742E-14 -1.76136212E-18 -4.99679525E-18 -1.52469764E-18 -3.27803301E-18
 -2.01557246E-02  6.74779256E-02 -1.56397128E-04 -8.56337762E-04 -6.17191159E-03
 -8.46717591E-04  5.02629338E-11  3.96072475E-11  7.45178066E-01 -8.54418591E-12
 -2.52174608E-11 -1.96367509E-01 -3.10131934E-12 -8.09164657E-12 -6.90347022E-02
 -5.47472078E-04  3.37383277E-14  1.79976066E-13  2.18048535E-17  3.88218089E-18
  1.33944297E-03  4.64821176E-14  1.88646531E-13  2.17658837E-17 -6.94033383E-19
 -9.58989993E-04 -1.15197389E-14  3.25398556E-14 -5.90895778E-18 -2.46149294E-18
  4.81369638E-14 -2.51144119E-13  3.97975626E-03 -3.43052935E-04 -2.80999384E-14
  8.75769508E-14  3.53675004E-18 -1.67295064E-19 -4.98792004E-04 -2.01429593E-14
 -7.02358025E-14 -1.37794555E-18 -4.75409029E-18  2.75111582E-18 -1.20663303E-17
  2.14071955E-01 -7.31613138E-01  1.28310517E-01  1.15795422E-01 -3.54263486E-04
  2.55817485E-04 -2.54102133E-10 -1.59191827E-10  2.96553373E-01  5.79651391E-11
  4.33188305E-11 -8.19532428E-02  2.06865008E-11  1.50520076E-11 -2.82932168E-02
 -5.43697972E-04  1.94020701E-13  9.48082530E-14 -1.20263339E-16 -3.25341468E-17
 -2.19378524E-04  5.28295157E-13  3.25108694E-13  4.48533846E-17 -2.43858879E-17
  2.24921341E-04 -1.15516769E-14 -1.97890744E-14  4.14944688E-17 -1.36911927E-17
  1.30674644E-13  5.31635192E-14 -8.57128574E-04  1.45019976E-04 -9.51260486E-15
 -4.76196347E-14 -2.48194744E-18 -1.52607798E-18 -1.50286907E-04  1.07232723E-13
  5.99623604E-14 -3.70384669E-18 -4.24560204E-18 -6.84183363E-18  4.36966550E-18
  2.14167311E-01 -7.31530658E-01  1.29843109E-01  1.13731199E-01  2.26410613E-03
 -5.29079283E-04 -1.05110358E-10  3.59105344E-11 -2.96601614E-01  3.84842805E-11
  1.04952346E-11  8.21215048E-02  1.27512050E-11  2.86433029E-12  2.81788667E-02
 -3.12626197E-04 -2.83013902E-13 -1.37296764E-13 -2.77978982E-17  1.26563510E-17
 -2.39854075E-04 -3.10040656E-13 -1.34720662E-13  3.00027007E-17  6.80064387E-18
  9.88409870E-05 -4.99748974E-14 -6.03958893E-14 -1.32695374E-17 -2.24049816E-18
  4.01672336E-13  3.26988858E-13 -2.94506997E-04  2.80734772E-04 -1.75266876E-13
 -1.32519139E-13  7.02314978E-18  7.79399863E-20  1.30798896E-04  1.09020393E-13
  4.42571574E-14 -4.59882429E-18  2.04050681E-18  7.21800154E-18 -9.48488951E-19
 -2.32071252E-01  7.93853109E-01 -1.41503910E-01 -1.28772052E-01  5.88438640E-03
  2.97644079E-04  4.25096326E-10 -1.67748406E-10  6.56990917E-02 -1.10567111E-10
  7.27025093E-11 -4.80712528E-02 -3.86941825E-11  2.40280953E-11 -1.61395262E-02
  2.41855669E-04 -3.67398078E-13  3.43745146E-13  4.57240939E-17  1.34111626E-17
 -7.28400934E-04 -9.80670655E-13  7.12405377E-13 -1.32472017E-17  1.55520279E-17
  1.79072128E-03  7.88250900E-15  6.25348719E-14 -2.01536337E-17  5.95455129E-18
 -3.38452483E-13  6.01144740E-13  5.45254771E-03  2.07580899E-04  2.43997149E-14
  6.54991715E-14  5.42332937E-18  8.87883100E-19 -1.72582558E-04 -1.99537944E-13
  1.56890176E-13  1.14149083E-18  7.41703271E-19  6.70841068E-18 -7.13727965E-18
  2.32219809E-01 -7.93763468E-01  1.43816795E-01  1.25916358E-01 -5.20182282E-03
 -4.23813961E-04  1.57645590E-10 -2.65926943E-10  6.57218552E-02 -7.07455220E-11
  7.61065323E-11 -4.81676525E-02 -2.31214021E-11  2.58271694E-11 -1.58759859E-02
 -1.84067742E-04  5.28733250E-13 -4.61172422E-13 -1.79602430E-17  1.91290527E-17
  7.46492192E-04  5.71267638E-13 -5.26767337E-13  4.13878020E-17  6.95368886E-18
 -1.60829135E-03  1.01233630E-13 -2.62974076E-14 -6.06249826E-18 -1.61534143E-18
 -7.55232326E-13  3.47188201E-13  5.21403659E-03 -2.39258983E-04  3.05458435E-13
 -1.08809820E-13 -5.11496636E-19  2.50219306E-19 -2.24168437E-04 -2.04217785E-13
  2.00972240E-13 -5.95254703E-18 -1.51227874E-18  1.01280856E-17 -9.92073471E-18
 -1.95869401E-10  5.10432202E-10 -1.75952914E-10 -1.43477684E-10  1.47391340E-12
  7.63298882E-13 -7.44061829E-01  2.95039385E-02 -1.27429163E-11  2.31715430E-01
 -9.18810428E-03 -6.12172264E-12  7.92750832E-02 -3.14345804E-03 -2.35541045E-12
  1.93649023E-13  1.02928097E-03 -4.08135999E-05 -3.62090610E-16  1.42568670E-16
 -5.29887108E-13  2.29064675E-03 -9.08299510E-05  7.86345477E-16 -1.63668221E-16
  9.27103849E-13  1.19096410E-04 -4.72247433E-06 -4.35738755E-16 -3.19747835E-18
  1.42603851E-03 -5.65460411E-05  3.24990016E-12  8.12846599E-15  1.41003158E-04
 -5.59113253E-06  1.40038344E-16  1.21877968E-17 -1.14476824E-13  5.00183581E-04
 -1.98335471E-05 -1.91081192E-16 -5.15012117E-17 -8.20720930E-17  1.23116045E-16
  6.37617875E-11 -1.33692206E-10  5.75443132E-11  4.51612605E-11 -2.90753295E-12
 -4.10419259E-13 -7.44311235E-01  2.95138273E-02  6.90361496E-11  2.32637021E-01
 -9.22464761E-03 -5.30290222E-11  7.82467567E-02 -3.10268226E-03 -1.70826532E-11
 -5.95450887E-14 -1.44682623E-03  5.73703280E-05  7.10542289E-17  2.25235288E-16
  3.83135660E-13 -1.61880746E-03  6.41898198E-05 -4.19626035E-16 -1.78579716E-16
 -1.01927789E-12 -1.14724623E-04  4.54912232E-06  2.13915024E-16  6.89344221E-17
  1.35591769E-03 -5.37655742E-05  2.81737923E-12 -9.44347795E-14 -4.79060530E-04
  1.89959649E-05 -1.03456408E-16 -1.47690256E-17 -1.20797772E-13  6.09651801E-04
 -2.41742394E-05 -5.82605419E-16 -8.75377820E-17 -3.24755020E-16  2.17852691E-15
 -1.31065631E-10  1.63629704E-10 -2.47997667E-11 -2.35546847E-11  1.17737106E-12
 -3.40273027E-14  2.95039390E-02  7.44061832E-01 -2.19580999E-11 -9.18810438E-03
 -2.31715431E-01  1.55053898E-12 -3.14345808E-03 -7.92750834E-02  6.99970411E-13
  3.46617951E-14 -4.08135999E-05 -1.02928097E-03  2.38648924E-16  6.71618178E-17
 -5.68154078E-14 -9.08299516E-05 -2.29064675E-03 -1.04564813E-16  1.06084705E-16
  4.36758472E-13 -4.72247416E-06 -1.19096409E-04  1.34184701E-16  1.42342435E-16
 -5.65460405E-05 -1.42603851E-03  1.09077758E-12  1.56000528E-14 -5.59113223E-06
 -1.41003156E-04  1.43794203E-16  8.18556774E-17 -9.44583643E-16 -1.98335471E-05
 -5.00183581E-04  2.54228648E-16  8.72120866E-17 -7.99224352E-17  4.47680623E-16
  8.47376091E-11 -2.89222692E-10  5.99275193E-11  5.11218001E-11 -5.03803463E-13
 -1.29833239E-13  2.95138268E-02  7.44311232E-01 -1.03424067E-10 -9.22464757E-03
 -2.32637021E-01  1.17743759E-11 -3.10268224E-03 -7.82467565E-02  4.62891199E-12
  1.80083321E-14  5.73703281E-05  1.44682623E-03 -5.33672217E-17  6.95278134E-17
  1.03755776E-13  6.41898198E-05  1.61880746E-03  1.95409859E-16  2.64420154E-16
 -3.38755921E-13  4.54912257E-06  1.14724625E-04 -7.11694473E-17 -7.07191398E-17
 -5.37655753E-05 -1.35591769E-03  1.03594753E-12 -7.45458779E-15  1.89959654E-05
  4.79060533E-04  1.32443693E-17  2.46069224E-17 -2.15414824E-14 -2.41742394E-05
 -6.09651800E-04 -2.66659738E-17 -3.39671974E-17  1.51691706E-16 -8.56871252E-16
 -4.94515836E-12  1.19741797E-10 -6.07848486E-11 -4.74408123E-11 -1.44100380E-13
  3.22383064E-13 -6.61439842E-01  3.28084209E-01 -9.45013847E-11  9.46028202E-02
 -4.69244357E-02 -2.44736753E-12  3.68072909E-02 -1.82569753E-02  3.22642339E-13
 -1.99500823E-14 -1.73589519E-04  8.61030395E-05 -2.24537910E-17 -2.58131530E-17
 -1.51017614E-13  4.07933019E-04 -2.02340972E-04  7.00102782E-16  2.01445709E-16
  2.71308336E-13 -2.67930802E-04  1.32897748E-04 -4.94156502E-17 -3.43361257E-16
 -1.10386927E-03  5.47535927E-04  5.90056787E-13 -6.49387033E-14 -3.90106013E-04
  1.93498509E-04  6.09008786E-17  5.41139371E-17 -5.04812272E-14  2.06857443E-05
 -1.02604430E-05 -1.41377683E-16 -3.25633953E-17  7.66873466E-17 -2.08759515E-16
  5.12763756E-11 -1.03000168E-10  4.20612386E-11  3.30369916E-11 -8.28655646E-14
 -2.62373444E-13  6.61730619E-01 -3.28228440E-01 -6.03300559E-12 -9.56610699E-02
  4.74493440E-02  7.11934500E-13 -3.56578344E-02  1.76868276E-02  3.98735480E-13
 -2.46069493E-14  1.70023410E-04 -8.43341953E-05  3.45561816E-16  1.20537459E-16
  6.26507596E-15  2.97995509E-04 -1.47810301E-04 -3.35876734E-16 -2.50799517E-16
 -3.26628933E-13 -2.74071632E-04  1.35943693E-04  2.17679002E-16  1.24200402E-16
  1.12359396E-03 -5.57319671E-04  7.40142647E-13  1.81978369E-14 -5.76805485E-04
  2.86104282E-04 -8.54856873E-17 -4.31751497E-17  1.81230892E-14 -1.63212110E-04
  8.09556863E-05 -4.18895719E-16 -7.69344199E-17 -3.14305730E-16  1.85008919E-15
 -6.33096784E-11  2.04641574E-10 -7.79922366E-11 -6.29023579E-11  3.38781932E-13
  3.53895078E-13 -3.28084210E-01 -6.61439839E-01 -8.29461346E-11  4.69244360E-02
  9.46028193E-02 -6.63298133E-12  1.82569754E-02  3.68072905E-02 -1.30461506E-12
  1.83167154E-14 -8.61030385E-05 -1.73589524E-04 -4.06513458E-16  3.34991771E-17
 -2.91425336E-13  2.02340975E-04  4.07933009E-04  2.83510559E-16 -1.80517992E-17
  2.98095571E-13 -1.32897748E-04 -2.67930802E-04 -2.31921161E-16 -1.04569007E-16
 -5.47535925E-04 -1.10386927E-03  9.95148074E-13 -2.65655549E-14 -1.93498508E-04