#INFO: **** input file is /share/home/srwang/automr_inputlibrary/suhf_vs_gvb/Cr2_20/suhf.py ****
from pyphf import suscf, guess
from pyscf import lib

lib.num_threads(8)
xyz = '''Cr 0.0 0.0 0.0; Cr 0.0 0.0 2.0'''

mf1 = guess.from_frag(xyz, 'def2-tzvp', [[0],[1]], [0,0], [6,-6], cycle=50)
mf1 = guess.check_stab(mf1)
mf2 = suscf.SUHF(mf1)
mf2.max_cycle = 100
mf2.level_shift = 0.5
mf2.tofch = True
mf2.oldfch = 'Cr2_20_uhf.fch'
mf2.kernel()
#INFO: ******************** input file end ********************


System: uname_result(system='Linux', node='xc02n12', release='3.10.0-1127.el7.x86_64', version='#1 SMP Tue Feb 18 16:39:12 EST 2020', machine='x86_64', processor='x86_64')  Threads 8
Python 3.7.4 (default, Aug 13 2019, 20:35:49) 
[GCC 7.3.0]
numpy 1.17.2  scipy 1.4.1
Date: Mon Jul  5 14:48:31 2021
PySCF version 1.7.6a1
PySCF path  /share/home/srwang/pyscf/pyscf
GIT HEAD      ref: refs/heads/master
GIT master branch  80f71dfe77ac5f9caae26788acf76446987635bd

[CONFIG] conf_file /share/home/srwang/.pyscf_conf.py
[INPUT] verbose = 4
[INPUT] num. atoms = 2
[INPUT] num. electrons = 48
[INPUT] charge = 0
[INPUT] spin (= nelec alpha-beta = 2S) = 0
[INPUT] symmetry False subgroup None
[INPUT] Mole.unit = angstrom
[INPUT]  1 Cr     0.000000000000   0.000000000000   0.000000000000 AA    0.000000000000   0.000000000000   0.000000000000 Bohr
[INPUT]  2 Cr     0.000000000000   0.000000000000   2.000000000000 AA    0.000000000000   0.000000000000   3.779452249130 Bohr

nuclear repulsion = 152.40303674496
number of shells = 30
number of NR pGTOs = 184
number of NR cGTOs = 90
basis = def2-tzvp
ecp = {}
CPU time:         1.06
**** generating fragment guess ****
fragments: [('Cr', [0.0, 0.0, 0.0])] [('Cr', [0.0, 0.0, 2.0])]
converged SCF energy = -1043.33452131755  <S^2> = 12.000047  2S+1 = 7.0000135
converged SCF energy = -1043.33452131755  <S^2> = 12.000047  2S+1 = 7.0000135
       na   nb
atom1  15    9
atom2   9   15


******** <class 'pyscf.scf.uhf.UHF'> ********
method = UHF
initial guess = minao
damping factor = 0
level_shift factor = 0
DIIS = <class 'pyscf.scf.diis.CDIIS'>
diis_start_cycle = 1
diis_space = 8
SCF conv_tol = 1e-09
SCF conv_tol_grad = None
SCF max_cycles = 50
direct_scf = True
direct_scf_tol = 1e-13
chkfile to save SCF result = /share/home/srwang/automr_inputlibrary/suhf_vs_gvb/Cr2_20/tmp2ks7oj7c
max_memory 4000 MB (current use 135 MB)
number electrons alpha = 24  beta = 24
Set gradient conv threshold to 3.16228e-05
init E= -2087.02856183946
  alpha nocc = 24  HOMO = -0.22152459758167  LUMO = 0.0295641846813069
  beta  nocc = 24  HOMO = -0.221524597581709  LUMO = 0.0295641846808656
cycle= 1 E= -2086.58828544271  delta_E= 0.44  |g|= 0.0575  |ddm|= 0.484
  alpha nocc = 24  HOMO = -0.229910416880262  LUMO = 0.0285016208036331
  beta  nocc = 24  HOMO = -0.22991041687828  LUMO = 0.0285016208025183
cycle= 2 E= -2086.59159082002  delta_E= -0.00331  |g|= 0.0224  |ddm|= 0.132
  alpha nocc = 24  HOMO = -0.227961892313263  LUMO = 0.0296373016945871
  beta  nocc = 24  HOMO = -0.227961892311945  LUMO = 0.0296373016936008
cycle= 3 E= -2086.59237245879  delta_E= -0.000782  |g|= 0.0162  |ddm|= 0.0654
  alpha nocc = 24  HOMO = -0.228786166934928  LUMO = 0.0292774836752414
  beta  nocc = 24  HOMO = -0.228786166933753  LUMO = 0.0292774836743757
cycle= 4 E= -2086.59257254317  delta_E= -0.0002  |g|= 0.00586  |ddm|= 0.0317
  alpha nocc = 24  HOMO = -0.228713646249663  LUMO = 0.0292757471350182
  beta  nocc = 24  HOMO = -0.228713646248865  LUMO = 0.02927574713431
cycle= 5 E= -2086.59264080189  delta_E= -6.83e-05  |g|= 0.00226  |ddm|= 0.0203
  alpha nocc = 24  HOMO = -0.228980656747805  LUMO = 0.0292206097599839
  beta  nocc = 24  HOMO = -0.228980656747207  LUMO = 0.0292206097593717
cycle= 6 E= -2086.5926549648  delta_E= -1.42e-05  |g|= 0.000774  |ddm|= 0.0113
  alpha nocc = 24  HOMO = -0.229016384559583  LUMO = 0.0292490222225904
  beta  nocc = 24  HOMO = -0.229016384559159  LUMO = 0.0292490222220331
cycle= 7 E= -2086.59265692225  delta_E= -1.96e-06  |g|= 0.000286  |ddm|= 0.00546
  alpha nocc = 24  HOMO = -0.22908198010618  LUMO = 0.0292612194633977
  beta  nocc = 24  HOMO = -0.229081980105706  LUMO = 0.0292612194628489
cycle= 8 E= -2086.59265723959  delta_E= -3.17e-07  |g|= 0.000102  |ddm|= 0.00267
  alpha nocc = 24  HOMO = -0.229125599495647  LUMO = 0.0292701250268071
  beta  nocc = 24  HOMO = -0.229125599495359  LUMO = 0.029270125026284
cycle= 9 E= -2086.59265729981  delta_E= -6.02e-08  |g|= 3.43e-05  |ddm|= 0.00129
  alpha nocc = 24  HOMO = -0.229140554679578  LUMO = 0.0292768317364824
  beta  nocc = 24  HOMO = -0.229140554678945  LUMO = 0.0292768317359198
cycle= 10 E= -2086.59265730664  delta_E= -6.83e-09  |g|= 1.16e-05  |ddm|= 0.000391
  alpha nocc = 24  HOMO = -0.229143421848966  LUMO = 0.0292796083478815
  beta  nocc = 24  HOMO = -0.229143421849044  LUMO = 0.0292796083474191
cycle= 11 E= -2086.59265730733  delta_E= -6.94e-10  |g|= 3.99e-06  |ddm|= 0.00011
  alpha nocc = 24  HOMO = -0.229143777188251  LUMO = 0.0292795674165968
  beta  nocc = 24  HOMO = -0.229143777187431  LUMO = 0.0292795674160076
Extra cycle  E= -2086.59265730737  delta_E= -3.73e-11  |g|= 2.4e-06  |ddm|= 1.89e-05
converged SCF energy = -2086.59265730737  <S^2> = 5.2992035  2S+1 = 4.7113495
time for guess: 0.788
**** checking UHF/UKS internal stability ...
tol 0.0001  toloose 0.01
max_cycle 50  max_space 12  max_memory 2000  incore True
davidson 0 1  |r|=  2.7  e= [1.46202692]  max|de|= 1.46  lindep= 0.975
davidson 1 2  |r|= 0.604  e= [0.97417444]  max|de|= -0.488  lindep=    1
davidson 2 3  |r|= 0.292  e= [0.51410021]  max|de|= -0.46  lindep= 0.988
davidson 3 4  |r|= 0.217  e= [0.19881374]  max|de|= -0.315  lindep= 0.997
davidson 4 5  |r|= 0.171  e= [0.16834492]  max|de|= -0.0305  lindep= 0.875
davidson 5 6  |r|= 0.0907  e= [0.15804744]  max|de|= -0.0103  lindep= 0.915
davidson 6 7  |r|= 0.0355  e= [0.15625883]  max|de|= -0.00179  lindep= 0.851
davidson 7 8  |r|= 0.0312  e= [0.15540494]  max|de|= -0.000854  lindep= 0.818
davidson 8 9  |r|= 0.0261  e= [0.15492627]  max|de|= -0.000479  lindep= 0.908
davidson 9 10  |r|= 0.0187  e= [0.15465986]  max|de|= -0.000266  lindep= 0.775
davidson 10 11  |r|= 0.0119  e= [0.15450448]  max|de|= -0.000155  lindep= 0.854
root 0 converged  |r|= 0.00881  e= 0.15443442439606828  max|de|= -7.01e-05
converged 11 12  |r|= 0.00881  e= [0.15443442]  max|de|= -7.01e-05
UHF/UKS wavefunction is stable in the internal stability analysis

******** <class 'pyphf.suscf.SUHF'> ********
Date: Mon Jul  5 14:48:32 2021
pyphf version 0.4.0
pyphf path  /share/home/srwang/ExSCF
GIT ORIG_HEAD 3359379feaf48d24d1be318eb6e2afc227b11fdb
GIT HEAD (branch main) bc10c7af3fe3904d1db1be08e3fae4560657cda2
max_cycle: 100
verbose: 4                # normal
conv_tol: 1e-07           # 1e-07 for RMSD(dm), 1e-05 for MaxD(dm), 1e-09 for dE
DIIS: <class 'pyscf.scf.diis.CDIIS'>
diis_start_cyc = 10
level shift: 0.500 a.u.
grids:  [0.06237655 0.31939555 0.74529195 1.28265786 1.85893479 2.39630071
 2.8221971  3.07921611] 
weights:  [0.15900941 0.34931531 0.49276925 0.56970235 0.56970235 0.49276925
 0.34931531 0.15900941]
S = 0.0, Sz = 0.0
Wigner small d:  1
value : [1. 1. 1. 1. 1. 1. 1. 1.]
time for Preparation before cyc: 0.119
**** Start Cycle 1 ****
time for NO, Ng: 0.378
time for Gg: 1.381
detC 1.0000000000000167
detNg [       1.005168        1.145186        2.114011        9.946309      172.294589    12175.017945  1928604.290422 67449723.365518]
xg [0.994858 0.87322  0.473034 0.10054  0.005804 0.000082 0.000001 0.      ]
ciS 0.3218353411856498
ciH -720.5915839340473
S2 = 0.000153
Hsp + Hph =  -2239.0070067487586
level shift: 0.500 a.u.
Alpha occ 24 vir 66; Beta occ 24 vir 66
Alpha energies:  [-0.4132   -0.401551 -0.401551 -0.398605 -0.398605 -0.229166] <- HOMO
         LUMO->  [0.52928  0.592583 0.592583 0.602827 0.643592 0.643592]
Beta energies:   [-0.4132   -0.401551 -0.401551 -0.398605 -0.398605 -0.229166] <- HOMO
         LUMO->  [0.52928  0.592583 0.592583 0.602827 0.643592 0.643592]
time for xg, H, S2, Yg, Feff: 0.063
 E =  -2086.60397000
**** Start Cycle 2 ****
time for NO, Ng: 0.374
time for Gg: 1.385
detC 0.9999999999999986
detNg [       1.005171        1.14527         2.114891        9.959971      172.901379    12271.846961  1958155.172288 68870944.430656]
xg [0.994855 0.873156 0.472838 0.100402 0.005784 0.000081 0.000001 0.      ]
ciS 0.32167579933983503
ciH -720.2344445314694
S2 = 0.000154
Hsp + Hph =  -2239.007242725699
level shift: 0.500 a.u.
Alpha occ 24 vir 66; Beta occ 24 vir 66
Alpha energies:  [-0.411769 -0.399964 -0.399964 -0.39701  -0.39701  -0.229045] <- HOMO
         LUMO->  [0.529477 0.592672 0.592672 0.602948 0.643696 0.643696]
Beta energies:   [-0.411769 -0.399964 -0.399964 -0.39701  -0.39701  -0.229045] <- HOMO
         LUMO->  [0.529477 0.592672 0.592672 0.602948 0.643696 0.643696]
time for xg, H, S2, Yg, Feff: 0.064
 E =  -2086.60420598, delta E = -0.000235977, MaxD(dm) = 0.00071107, RMSD(dm) = 6.07083e-05
**** Start Cycle 3 ****
time for NO, Ng: 0.375
time for Gg: 1.361
detC -1.0000000000000018
detNg [       1.005172        1.14529         2.115089        9.962653      172.982012    12273.825362  1954509.536489 68428856.836759]
xg [0.994855 0.873141 0.472793 0.100375 0.005781 0.000081 0.000001 0.      ]
ciS 0.3216431127254942
ciH -720.1612800599949
S2 = 0.000155
Hsp + Hph =  -2239.007308310113
level shift: 0.500 a.u.
Alpha occ 24 vir 66; Beta occ 24 vir 66
Alpha energies:  [-0.412391 -0.400354 -0.400354 -0.397475 -0.397475 -0.229108] <- HOMO
         LUMO->  [0.52951  0.592644 0.592644 0.602925 0.643729 0.643729]
Beta energies:   [-0.412391 -0.400354 -0.400354 -0.397475 -0.397475 -0.229108] <- HOMO
         LUMO->  [0.52951  0.592644 0.592644 0.602925 0.643729 0.643729]
time for xg, H, S2, Yg, Feff: 0.056
 E =  -2086.60427157, delta E = -6.55844e-05, MaxD(dm) = 0.00053578, RMSD(dm) = 4.0837e-05
**** Start Cycle 4 ****
time for NO, Ng: 0.372
time for Gg: 1.383
detC -1.0000000000000109
detNg [       1.005172        1.145303        2.115221        9.964371      173.026774    12272.312246  1951417.33026  68219779.394044]
xg [0.994854 0.873131 0.472764 0.100358 0.005779 0.000081 0.000001 0.      ]
ciS 0.32162193175713555
ciH -720.1138642942396
S2 = 0.000155
Hsp + Hph =  -2239.0073349786826
level shift: 0.500 a.u.
Alpha occ 24 vir 66; Beta occ 24 vir 66
Alpha energies:  [-0.412122 -0.39999  -0.39999  -0.397142 -0.397142 -0.229055] <- HOMO
         LUMO->  [0.529576 0.59269  0.59269  0.602949 0.643806 0.643806]
Beta energies:   [-0.412122 -0.39999  -0.39999  -0.397142 -0.397142 -0.229055] <- HOMO
         LUMO->  [0.529576 0.59269  0.59269  0.602949 0.643806 0.643806]
time for xg, H, S2, Yg, Feff: 0.064
 E =  -2086.60429823, delta E = -2.66686e-05, MaxD(dm) = 0.000413311, RMSD(dm) = 2.88366e-05
**** Start Cycle 5 ****
time for NO, Ng: 0.363
time for Gg: 1.367
detC -1.0000000000000047
detNg [       1.005173        1.145309        2.115275        9.964917      173.02152     12263.377987  1946214.163935 67905817.967168]
xg [0.994854 0.873127 0.472752 0.100352 0.00578  0.000082 0.000001 0.      ]
ciS 0.3216144905758754
ciH -720.0972075592287
S2 = 0.000155
Hsp + Hph =  -2239.0073478027666
level shift: 0.500 a.u.
Alpha occ 24 vir 66; Beta occ 24 vir 66
Alpha energies:  [-0.412192 -0.399981 -0.399981 -0.397157 -0.397157 -0.22906 ] <- HOMO
         LUMO->  [0.52961  0.592699 0.592699 0.602953 0.643845 0.643845]
Beta energies:   [-0.412192 -0.399981 -0.399981 -0.397157 -0.397157 -0.22906 ] <- HOMO
         LUMO->  [0.52961  0.592699 0.592699 0.602953 0.643845 0.643845]
time for xg, H, S2, Yg, Feff: 0.057
 E =  -2086.60431106, delta E = -1.28241e-05, MaxD(dm) = 0.000311217, RMSD(dm) = 2.11357e-05
**** Start Cycle 6 ****
time for NO, Ng: 0.364
time for Gg: 1.382
detC 1.0000000000000002
detNg [       1.005173        1.145314        2.115317        9.965334      173.016674    12256.259488  1942239.217736 67689658.160107]
xg [0.994854 0.873123 0.472742 0.100348 0.00578  0.000082 0.000001 0.      ]
ciS 0.3216087875359358
ciH -720.0844405769061
S2 = 0.000155
Hsp + Hph =  -2239.007354537679
level shift: 0.500 a.u.
Alpha occ 24 vir 66; Beta occ 24 vir 66
Alpha energies:  [-0.412135 -0.39988  -0.39988  -0.397073 -0.397073 -0.22905 ] <- HOMO
         LUMO->  [0.529643 0.592717 0.592717 0.602963 0.643885 0.643885]
Beta energies:   [-0.412135 -0.39988  -0.39988  -0.397073 -0.397073 -0.22905 ] <- HOMO
         LUMO->  [0.529643 0.592717 0.592717 0.602963 0.643885 0.643885]
time for xg, H, S2, Yg, Feff: 0.066
 E =  -2086.60431779, delta E = -6.73491e-06, MaxD(dm) = 0.00023248, RMSD(dm) = 1.58289e-05
**** Start Cycle 7 ****
time for NO, Ng: 0.373
time for Gg: 1.375
detC 1.000000000000006
detNg [       1.005173        1.145317        2.115348        9.965615      173.010039    12250.010689  1938877.406684 67509135.490972]
xg [0.994854 0.873121 0.472736 0.100345 0.00578  0.000082 0.000001 0.      ]
ciS 0.3216048101561791
ciH -720.0755363959805
S2 = 0.000156
Hsp + Hph =  -2239.0073582739465
level shift: 0.500 a.u.
Alpha occ 24 vir 66; Beta occ 24 vir 66
Alpha energies:  [-0.412128 -0.39984  -0.39984  -0.397047 -0.397047 -0.22905 ] <- HOMO
         LUMO->  [0.529666 0.592727 0.592727 0.60297  0.643914 0.643914]
Beta energies:   [-0.412128 -0.39984  -0.39984  -0.397047 -0.397047 -0.22905 ] <- HOMO
         LUMO->  [0.529666 0.592727 0.592727 0.60297  0.643914 0.643914]
time for xg, H, S2, Yg, Feff: 0.062
 E =  -2086.60432153, delta E = -3.73627e-06, MaxD(dm) = 0.000172963, RMSD(dm) = 1.20508e-05
**** Start Cycle 8 ****
time for NO, Ng: 0.374
time for Gg: 1.378
detC -0.9999999999999976
detNg [       1.005173        1.14532         2.115376        9.965894      173.007105    12245.403476  1936343.813916 67377310.05457 ]
xg [0.994854 0.873118 0.472729 0.100342 0.00578  0.000082 0.000001 0.      ]
ciS 0.3216010046870655
ciH -720.0670166153566
S2 = 0.000156
Hsp + Hph =  -2239.007360427929
level shift: 0.500 a.u.
Alpha occ 24 vir 66; Beta occ 24 vir 66
Alpha energies:  [-0.412105 -0.399797 -0.399797 -0.397015 -0.397015 -0.229049] <- HOMO
         LUMO->  [0.529685 0.592737 0.592737 0.602977 0.643938 0.643938]
Beta energies:   [-0.412105 -0.399797 -0.399797 -0.397015 -0.397015 -0.229049] <- HOMO
         LUMO->  [0.529685 0.592737 0.592737 0.602977 0.643938 0.643938]
time for xg, H, S2, Yg, Feff: 0.065
 E =  -2086.60432368, delta E = -2.15398e-06, MaxD(dm) = 0.000128585, RMSD(dm) = 9.29465e-06
**** Start Cycle 9 ****
time for NO, Ng: 0.375
time for Gg: 1.372
detC 1.000000000000009
detNg [       1.005173        1.145323        2.115401        9.966163      173.006612    12241.963449  1934388.445769 67276263.890565]
xg [0.994854 0.873116 0.472724 0.10034  0.00578  0.000082 0.000001 0.      ]
ciS 0.3215974135387629
ciH -720.0589764190054
S2 = 0.000156
Hsp + Hph =  -2239.007361706331
level shift: 0.500 a.u.
Alpha occ 24 vir 66; Beta occ 24 vir 66
Alpha energies:  [-0.412092 -0.399768 -0.399768 -0.396996 -0.396996 -0.22905 ] <- HOMO
         LUMO->  [0.529699 0.592745 0.592745 0.602982 0.643957 0.643957]
Beta energies:   [-0.412092 -0.399768 -0.399768 -0.396996 -0.396996 -0.22905 ] <- HOMO
         LUMO->  [0.529699 0.592745 0.592745 0.602982 0.643957 0.643957]
time for xg, H, S2, Yg, Feff: 0.061
 E =  -2086.60432496, delta E = -1.2784e-06, MaxD(dm) = 9.73836e-05, RMSD(dm) = 7.2427e-06
**** Start Cycle 10 ****
time for NO, Ng: 0.377
time for Gg: 1.372
detC 0.9999999999999833
detNg [       1.005173        1.145325        2.115425        9.966436      173.00855     12239.53378   1932917.819349 67201023.48278 ]
xg [0.994853 0.873114 0.472718 0.100337 0.00578  0.000082 0.000001 0.      ]
ciS 0.3215938711123414
ciH -720.0510451498292
S2 = 0.000156
Hsp + Hph =  -2239.0073624826514
F(mod,ortho) updated with CDIIS
level shift: 0.500 a.u.
Alpha occ 24 vir 66; Beta occ 24 vir 66
Alpha energies:  [-0.412079 -0.399744 -0.399744 -0.39698  -0.39698  -0.229052] <- HOMO
         LUMO->  [0.529711 0.592751 0.592751 0.602987 0.643973 0.643973]
Beta energies:   [-0.412079 -0.399744 -0.399744 -0.39698  -0.39698  -0.229052] <- HOMO
         LUMO->  [0.529711 0.592751 0.592751 0.602987 0.643973 0.643973]
time for xg, H, S2, Yg, Feff: 0.065
 E =  -2086.60432574, delta E = -7.76321e-07, MaxD(dm) = 8.06439e-05, RMSD(dm) = 5.69408e-06
**** Start Cycle 11 ****
time for NO, Ng: 0.374
time for Gg: 1.374
detC 1.0000000000000062
detNg [       1.005173        1.145328        2.115448        9.966705      173.012164    12237.852482  1931807.133376 67144290.474206]
xg [0.994853 0.873113 0.472713 0.100334 0.00578  0.000082 0.000001 0.      ]
ciS 0.32159042246501557
ciH -720.0433237575425
S2 = 0.000156
Hsp + Hph =  -2239.0073629629715
F(mod,ortho) updated with CDIIS
level shift: 0.500 a.u.
Alpha occ 24 vir 66; Beta occ 24 vir 66
Alpha energies:  [-0.412034 -0.399662 -0.399662 -0.396933 -0.396933 -0.22906 ] <- HOMO
         LUMO->  [0.529754 0.592773 0.592773 0.603007 0.644028 0.644028]
Beta energies:   [-0.412034 -0.399662 -0.399662 -0.396933 -0.396933 -0.22906 ] <- HOMO
         LUMO->  [0.529754 0.592773 0.592773 0.603007 0.644028 0.644028]
time for xg, H, S2, Yg, Feff: 0.058
 E =  -2086.60432622, delta E = -4.8032e-07, MaxD(dm) = 0.000161045, RMSD(dm) = 1.03943e-05
**** Start Cycle 12 ****
time for NO, Ng: 0.367
time for Gg: 1.379
detC -0.9999999999999942
detNg [       1.005173        1.145333        2.115503        9.96739       173.026357    12235.75371   1930027.525469 67054425.96259 ]
xg [0.994853 0.873108 0.472701 0.100327 0.005779 0.000082 0.000001 0.      ]
ciS 0.32158185694900443
ciH -720.0241456952898
S2 = 0.000156
Hsp + Hph =  -2239.00736355742
F(mod,ortho) updated with CDIIS
level shift: 0.500 a.u.
Alpha occ 24 vir 66; Beta occ 24 vir 66
Alpha energies:  [-0.412034 -0.399663 -0.399663 -0.396934 -0.396934 -0.229061] <- HOMO
         LUMO->  [0.529753 0.592773 0.592773 0.603006 0.644028 0.644028]
Beta energies:   [-0.412034 -0.399663 -0.399663 -0.396934 -0.396934 -0.229061] <- HOMO
         LUMO->  [0.529753 0.592773 0.592773 0.603006 0.644028 0.644028]
time for xg, H, S2, Yg, Feff: 0.057
 E =  -2086.60432681, delta E = -5.94448e-07, MaxD(dm) = 7.87362e-05, RMSD(dm) = 5.12329e-06
**** Start Cycle 13 ****
time for NO, Ng: 0.374
time for Gg: 1.369
detC 1.0000000000000084
detNg [       1.005174        1.145336        2.115534        9.967797      173.035828    12234.933684  1929162.241748 67009621.664711]
xg [0.994853 0.873106 0.472694 0.100323 0.005779 0.000082 0.000001 0.      ]
ciS 0.32157680098548536
ciH -720.01282540799
S2 = 0.000156
Hsp + Hph =  -2239.0073637198984
F(mod,ortho) updated with CDIIS
level shift: 0.500 a.u.
Alpha occ 24 vir 66; Beta occ 24 vir 66
Alpha energies:  [-0.412042 -0.399669 -0.399669 -0.396951 -0.396951 -0.229071] <- HOMO
         LUMO->  [0.529756 0.592771 0.592771 0.60301  0.644032 0.644032]
Beta energies:   [-0.412042 -0.399669 -0.399669 -0.396951 -0.396951 -0.229071] <- HOMO
         LUMO->  [0.529756 0.592771 0.592771 0.60301  0.644032 0.644032]
time for xg, H, S2, Yg, Feff: 0.059
 E =  -2086.60432697, delta E = -1.62478e-07, MaxD(dm) = 5.90136e-05, RMSD(dm) = 3.55082e-06
**** Start Cycle 14 ****
time for NO, Ng: 0.373
time for Gg: 1.369
detC 1.0000000000000036
detNg [       1.005174        1.145339        2.115566        9.968221      173.047986    12235.072653  1928739.623821 66988585.75082 ]
xg [0.994853 0.873104 0.472687 0.100319 0.005779 0.000082 0.000001 0.      ]
ciS 0.3215716260024869
ciH -720.0012386045485
S2 = 0.000156
Hsp + Hph =  -2239.0073637870655
F(mod,ortho) updated with CDIIS
level shift: 0.500 a.u.
Alpha occ 24 vir 66; Beta occ 24 vir 66
Alpha energies:  [-0.412033 -0.399661 -0.399661 -0.396947 -0.396947 -0.229072] <- HOMO
         LUMO->  [0.529757 0.592772 0.592772 0.603012 0.644033 0.644033]
Beta energies:   [-0.412033 -0.399661 -0.399661 -0.396947 -0.396947 -0.229072] <- HOMO
         LUMO->  [0.529757 0.592772 0.592772 0.603012 0.644033 0.644033]
time for xg, H, S2, Yg, Feff: 0.056
 E =  -2086.60432704, delta E = -6.71671e-08, MaxD(dm) = 3.53256e-05, RMSD(dm) = 2.13614e-06
**** Start Cycle 15 ****
time for NO, Ng: 0.373
time for Gg: 1.368
detC 1.0000000000000064
detNg [       1.005174        1.145342        2.11559         9.968546      173.057988    12235.462196  1928538.453757 66977171.547329]
xg [0.994853 0.873102 0.472681 0.100316 0.005778 0.000082 0.000001 0.      ]
ciS 0.32156768253849927
ciH -719.9924091675643
S2 = 0.000156
Hsp + Hph =  -2239.0073638117046
F(mod,ortho) updated with CDIIS
level shift: 0.500 a.u.
Alpha occ 24 vir 66; Beta occ 24 vir 66
Alpha energies:  [-0.412036 -0.399664 -0.399664 -0.396952 -0.396952 -0.229075] <- HOMO
         LUMO->  [0.529757 0.592771 0.592771 0.603013 0.644033 0.644033]
Beta energies:   [-0.412036 -0.399664 -0.399664 -0.396952 -0.396952 -0.229075] <- HOMO
         LUMO->  [0.529757 0.592771 0.592771 0.603013 0.644033 0.644033]
time for xg, H, S2, Yg, Feff: 0.064
 E =  -2086.60432707, delta E = -2.46391e-08, MaxD(dm) = 1.85057e-05, RMSD(dm) = 1.25614e-06
**** Start Cycle 16 ****
time for NO, Ng: 0.369
time for Gg: 1.368
detC 0.9999999999999988
detNg [       1.005174        1.145344        2.115609        9.96881       173.066802    12236.076502  1928512.495075 66974539.501939]
xg [0.994853 0.8731   0.472677 0.100313 0.005778 0.000082 0.000001 0.      ]
ciS 0.32156451074709047
ciH -719.9853075061462
S2 = 0.000156
Hsp + Hph =  -2239.0073638207314
F(mod,ortho) updated with CDIIS
level shift: 0.500 a.u.
Alpha occ 24 vir 66; Beta occ 24 vir 66
Alpha energies:  [-0.412038 -0.399666 -0.399666 -0.396956 -0.396956 -0.229078] <- HOMO
         LUMO->  [0.529758 0.59277  0.59277  0.603015 0.644033 0.644033]
Beta energies:   [-0.412038 -0.399666 -0.399666 -0.396956 -0.396956 -0.229078] <- HOMO
         LUMO->  [0.529758 0.59277  0.59277  0.603015 0.644033 0.644033]
time for xg, H, S2, Yg, Feff: 0.062
 E =  -2086.60432708, delta E = -9.02673e-09, MaxD(dm) = 1.18713e-05, RMSD(dm) = 8.78896e-07
**** Start Cycle 17 ****
time for NO, Ng: 0.372
time for Gg: 1.380
detC 0.9999999999999933
detNg [       1.005174        1.145346        2.115628        9.969083      173.076599    12236.989037  1928608.066521 66976994.247046]
xg [0.994853 0.873099 0.472673 0.10031  0.005778 0.000082 0.000001 0.      ]
ciS 0.3215612439021609
ciH -719.9779930176967
S2 = 0.000156
Hsp + Hph =  -2239.0073638250988
F(mod,ortho) updated with CDIIS
level shift: 0.500 a.u.
Alpha occ 24 vir 66; Beta occ 24 vir 66
Alpha energies:  [-0.412039 -0.399666 -0.399666 -0.396956 -0.396956 -0.22908 ] <- HOMO
         LUMO->  [0.529759 0.592769 0.592769 0.603015 0.644033 0.644033]
Beta energies:   [-0.412039 -0.399666 -0.399666 -0.396956 -0.396956 -0.22908 ] <- HOMO
         LUMO->  [0.529759 0.592769 0.592769 0.603015 0.644033 0.644033]
time for xg, H, S2, Yg, Feff: 0.064
 E =  -2086.60432708, delta E = -4.36739e-09, MaxD(dm) = 9.09023e-06, RMSD(dm) = 6.02557e-07
**** Start Cycle 18 ****
time for NO, Ng: 0.374
time for Gg: 1.376
detC -1.0000000000000093
detNg [       1.005174        1.145347        2.115643        9.96931       173.084992    12237.856224  1928736.777455 66981200.01387 ]
xg [0.994853 0.873098 0.472669 0.100308 0.005778 0.000082 0.000001 0.      ]
ciS 0.32155854088310126
ciH -719.9719409388173
S2 = 0.000156
Hsp + Hph =  -2239.007363827274
F(mod,ortho) updated with CDIIS
level shift: 0.500 a.u.
Alpha occ 24 vir 66; Beta occ 24 vir 66
Alpha energies:  [-0.412041 -0.399669 -0.399669 -0.396958 -0.396958 -0.229082] <- HOMO
         LUMO->  [0.529759 0.592768 0.592768 0.603016 0.644033 0.644033]
Beta energies:   [-0.412041 -0.399669 -0.399669 -0.396958 -0.396958 -0.229082] <- HOMO
         LUMO->  [0.529759 0.592768 0.592768 0.603016 0.644033 0.644033]
time for xg, H, S2, Yg, Feff: 0.062
 E =  -2086.60432708, delta E = -2.17506e-09, MaxD(dm) = 8.18599e-06, RMSD(dm) = 5.07164e-07
**** Start Cycle 19 ****
time for NO, Ng: 0.373
time for Gg: 1.383
detC 0.9999999999999978
detNg [       1.005174        1.145349        2.115658        9.969528      173.093221    12238.760115  1928891.312393 66986370.973943]
xg [0.994853 0.873097 0.472666 0.100306 0.005777 0.000082 0.000001 0.      ]
ciS 0.3215559519236496
ciH -719.9661442399861
S2 = 0.000156
Hsp + Hph =  -2239.00736382866
F(mod,ortho) updated with CDIIS
level shift: 0.500 a.u.
Alpha occ 24 vir 66; Beta occ 24 vir 66
Alpha energies:  [-0.412042 -0.39967  -0.39967  -0.396959 -0.396959 -0.229083] <- HOMO
         LUMO->  [0.52976  0.592767 0.592767 0.603016 0.644033 0.644033]
Beta energies:   [-0.412042 -0.39967  -0.39967  -0.396959 -0.396959 -0.229083] <- HOMO
         LUMO->  [0.52976  0.592767 0.592767 0.603016 0.644033 0.644033]
time for xg, H, S2, Yg, Feff: 0.066
 E =  -2086.60432708, delta E = -1.38607e-09, MaxD(dm) = 6.45363e-06, RMSD(dm) = 3.83519e-07
**** Start Cycle 20 ****
time for NO, Ng: 0.374
time for Gg: 1.366
detC 1.0000000000000056
detNg [       1.005174        1.14535         2.115671        9.969708      173.100111    12239.549489  1929037.737143 66991335.495818]
xg [0.994853 0.873096 0.472663 0.100304 0.005777 0.000082 0.000001 0.      ]
ciS 0.32155382158840407
ciH -719.9613744039493
S2 = 0.000156
Hsp + Hph =  -2239.0073638294857
F(mod,ortho) updated with CDIIS
level shift: 0.500 a.u.
Alpha occ 24 vir 66; Beta occ 24 vir 66
Alpha energies:  [-0.412043 -0.399671 -0.399671 -0.396959 -0.396959 -0.229085] <- HOMO
         LUMO->  [0.52976  0.592766 0.592766 0.603017 0.644034 0.644034]
Beta energies:   [-0.412043 -0.399671 -0.399671 -0.396959 -0.396959 -0.229085] <- HOMO
         LUMO->  [0.52976  0.592766 0.592766 0.603017 0.644034 0.644034]
time for xg, H, S2, Yg, Feff: 0.061
 E =  -2086.60432708, delta E = -8.25821e-10, MaxD(dm) = 5.90218e-06, RMSD(dm) = 3.36472e-07
**** Start Cycle 21 ****
time for NO, Ng: 0.377
time for Gg: 1.367
detC -0.999999999999995
detNg [       1.005174        1.145351        2.115682        9.969873      173.106517    12240.300181  1929181.956454 66996134.517144]
xg [0.994853 0.873095 0.472661 0.100302 0.005777 0.000082 0.000001 0.      ]
ciS 0.3215518602255878
ciH -719.9569828983393
S2 = 0.000156
Hsp + Hph =  -2239.007363830042
F(mod,ortho) updated with CDIIS
level shift: 0.500 a.u.
Alpha occ 24 vir 66; Beta occ 24 vir 66
Alpha energies:  [-0.412043 -0.399671 -0.399671 -0.39696  -0.39696  -0.229085] <- HOMO
         LUMO->  [0.529761 0.592766 0.592766 0.603017 0.644034 0.644034]
Beta energies:   [-0.412043 -0.399671 -0.399671 -0.39696  -0.39696  -0.229085] <- HOMO
         LUMO->  [0.529761 0.592766 0.592766 0.603017 0.644034 0.644034]
time for xg, H, S2, Yg, Feff: 0.065
 E =  -2086.60432709, delta E = -5.56156e-10, MaxD(dm) = 4.21567e-06, RMSD(dm) = 2.44271e-07
**** Start Cycle 22 ****
time for NO, Ng: 0.374
time for Gg: 1.372
detC 1.0000000000000147
detNg [       1.005174        1.145352        2.11569         9.969994      173.111195    12240.850506  1929288.822126 66999754.070721]
xg [0.994853 0.873094 0.472659 0.100301 0.005777 0.000082 0.000001 0.      ]
ciS 0.32155043000798095
ciH -719.9537806306846
S2 = 0.000157
Hsp + Hph =  -2239.0073638303493
F(mod,ortho) updated with CDIIS
level shift: 0.500 a.u.
Alpha occ 24 vir 66; Beta occ 24 vir 66
Alpha energies:  [-0.412045 -0.399673 -0.399673 -0.396961 -0.396961 -0.229087] <- HOMO
         LUMO->  [0.529761 0.592765 0.592765 0.603018 0.644033 0.644033]
Beta energies:   [-0.412045 -0.399673 -0.399673 -0.396961 -0.396961 -0.229087] <- HOMO
         LUMO->  [0.529761 0.592765 0.592765 0.603018 0.644033 0.644033]
time for xg, H, S2, Yg, Feff: 0.060
 E =  -2086.60432709, delta E = -3.07409e-10, MaxD(dm) = 4.18243e-06, RMSD(dm) = 2.47041e-07
**** Start Cycle 23 ****
time for NO, Ng: 0.359
time for Gg: 1.364
detC -1.0000000000000067
detNg [       1.005174        1.145352        2.115698        9.970116      173.115932    12241.412047  1929399.593132 67003552.972729]
xg [0.994853 0.873094 0.472657 0.1003   0.005776 0.000082 0.000001 0.      ]
ciS 0.3215489867044963
ciH -719.9505490636277
S2 = 0.000157
Hsp + Hph =  -2239.007363830578
F(mod,ortho) updated with CDIIS
level shift: 0.500 a.u.
Alpha occ 24 vir 66; Beta occ 24 vir 66
Alpha energies:  [-0.412045 -0.399673 -0.399673 -0.396961 -0.396961 -0.229087] <- HOMO
         LUMO->  [0.529761 0.592765 0.592765 0.603018 0.644033 0.644033]
Beta energies:   [-0.412045 -0.399673 -0.399673 -0.396961 -0.396961 -0.229087] <- HOMO
         LUMO->  [0.529761 0.592765 0.592765 0.603018 0.644033 0.644033]
time for xg, H, S2, Yg, Feff: 0.064
 E =  -2086.60432709, delta E = -2.28738e-10, MaxD(dm) = 2.97301e-06, RMSD(dm) = 1.73116e-07
**** Start Cycle 24 ****
time for NO, Ng: 0.374
time for Gg: 1.373
detC -0.9999999999999972
detNg [       1.005174        1.145353        2.115704        9.970202      173.119278    12241.809354  1929478.544597 67006333.365492]
xg [0.994853 0.873093 0.472656 0.100299 0.005776 0.000082 0.000001 0.      ]
ciS 0.3215479672029783
ciH -719.9482663922581
S2 = 0.000157
Hsp + Hph =  -2239.0073638306912
F(mod,ortho) updated with CDIIS
level shift: 0.500 a.u.
Alpha occ 24 vir 66; Beta occ 24 vir 66
Alpha energies:  [-0.412045 -0.399673 -0.399673 -0.396962 -0.396962 -0.229087] <- HOMO
         LUMO->  [0.529761 0.592765 0.592765 0.603018 0.644033 0.644033]
Beta energies:   [-0.412045 -0.399673 -0.399673 -0.396962 -0.396962 -0.229087] <- HOMO
         LUMO->  [0.529761 0.592765 0.592765 0.603018 0.644033 0.644033]
time for xg, H, S2, Yg, Feff: 0.061
 E =  -2086.60432709, delta E = -1.13232e-10, MaxD(dm) = 2.19639e-06, RMSD(dm) = 1.27159e-07
**** Start Cycle 25 ****
time for NO, Ng: 0.366
time for Gg: 1.369
detC 0.9999999999999876
detNg [       1.005174        1.145353        2.115709        9.970265      173.121723    12242.098261  1929536.018076 67008449.082489]
xg [0.994853 0.873093 0.472655 0.100298 0.005776 0.000082 0.000001 0.      ]
ciS 0.32154722068762154
ciH -719.9465949388962
S2 = 0.000157
Hsp + Hph =  -2239.007363830751
F(mod,ortho) updated with CDIIS
level shift: 0.500 a.u.
Alpha occ 24 vir 66; Beta occ 24 vir 66
Alpha energies:  [-0.412045 -0.399673 -0.399673 -0.396962 -0.396962 -0.229087] <- HOMO
         LUMO->  [0.529761 0.592764 0.592764 0.603018 0.644033 0.644033]
Beta energies:   [-0.412045 -0.399673 -0.399673 -0.396962 -0.396962 -0.229087] <- HOMO
         LUMO->  [0.529761 0.592764 0.592764 0.603018 0.644033 0.644033]
time for xg, H, S2, Yg, Feff: 0.064

***************
SUHF converged at cycle 25
Final E(SUHF) =  -2086.60432709, delta E = -5.95719e-11, MaxD(dm) = 1.4975e-06, RMSD(dm) = 8.7473e-08
**** Extra Cycle 26 ****
detC 1.0000000000000002
detNg [       1.005174        1.145354        2.115711        9.970309      173.123409    12242.298169  1929576.0075   67009927.004572]
xg [0.994853 0.873093 0.472654 0.100298 0.005776 0.000082 0.000001 0.      ]
ciS 0.32154670668287016
ciH -719.9454440784821
S2 = 0.000157
Hsp + Hph =  -2239.00736383078
Alpha occ 24 vir 66; Beta occ 24 vir 66
Alpha energies:  [-0.412045 -0.399673 -0.399673 -0.396961 -0.396961 -0.229087] <- HOMO
         LUMO->  [0.029761 0.092765 0.092765 0.103017 0.144033 0.144033]
Beta energies:   [-0.412045 -0.399673 -0.399673 -0.396961 -0.396961 -0.229087] <- HOMO
         LUMO->  [0.029761 0.092765 0.092765 0.103017 0.144033 0.144033]
Extra E(SUHF) =  -2086.60432709, delta E = -2.91038e-11, MaxD(dm) =  1.029e-06, RMSD(dm) = 6.86162e-08
time for cyc: 46.984
******* suhf density *****
Clebsch-Gordan coeff: < 0 0 0 0 | 0 0 > = 1
Clebsch-Gordan coeff: < 0 0 1 0 | 0 0 > = 0
xggint 1.0
time for 1pdm: 0.032
SUHF NO occ alpha:  1.000000  1.000000  1.000000  1.000000  1.000000  1.000000  0.999999  0.999999  0.999999  0.999999  0.999999  0.999998  0.999997  0.999997  0.999993  0.999993  0.999992  0.999987  0.862287  0.670923  0.670923  0.656513  0.550039  0.550039  0.449961  0.449961  0.343487  0.329077  0.329077  0.137713  0.000013  0.000008  0.000007  0.000007  0.000003  0.000003  0.000002  ...
SUHF NO occ beta:   1.000000  1.000000  1.000000  1.000000  1.000000  1.000000  0.999999  0.999999  0.999999  0.999999  0.999999  0.999998  0.999997  0.999997  0.999993  0.999993  0.999992  0.999987  0.862287  0.670923  0.670923  0.656513  0.550039  0.550039  0.449961  0.449961  0.343487  0.329077  0.329077  0.137713  0.000013  0.000008  0.000007  0.000007  0.000003  0.000003  0.000002  ...
SUHF NO occ total:  2.000000  2.000000  2.000000  2.000000  2.000000  1.999999  1.999999  1.999999  1.999999  1.999998  1.999998  1.999996  1.999993  1.999993  1.999986  1.999986  1.999983  1.999973  1.724574  1.341845  1.341845  1.313026  1.100078  1.100078  0.899922  0.899922  0.686974  0.658155  0.658155  0.275426  0.000027  0.000017  0.000014  0.000014  0.000007  0.000007  0.000004  0.000002  0.000002  0.000001  0.000001  0.000001  ...
core 18, active 12, external 60
time for natorb: 0.058
***** End of SUHF *****
time tot: 47.193
Date: Mon Jul  5 14:49:20 2021
