HF file generated by AutoMR of MOKIT
Stability RHF                                                         Gen
Number of atoms                            I                2
Info1-9                                    I   N=           9
           6           5           0           0           0         110
           7           1           2
Charge                                     I                0
Multiplicity                               I                1
Number of electrons                        I               48
Number of alpha electrons                  I               24
Number of beta electrons                   I               24
Number of basis functions                  I               90
Number of independent functions            I               90
Number of point charges in /Mol/           I                0
Number of translation vectors              I                0
Atomic numbers                             I   N=           2
          24          24
Nuclear charges                            R   N=           2
  2.40000000E+01  2.40000000E+01
Current cartesian coordinates              R   N=           6
  0.00000000E+00  0.00000000E+00  0.00000000E+00  0.00000000E+00  0.00000000E+00
  7.55890453E+00
Force Field                                I                0
Int Atom Types                             I   N=           2
           0           0
MM charges                                 R   N=           2
  0.00000000E+00  0.00000000E+00
Integer atomic weights                     I   N=           2
          52          52
Real atomic weights                        R   N=           2
  5.19405097E+01  5.19405097E+01
Atom fragment info                         I   N=           2
           1           2
Atom residue num                           I   N=           2
           0           0
Nuclear spins                              I   N=           2
           0           0
Nuclear ZEff                               R   N=           2
 -2.47200000E+01 -2.47200000E+01
Nuclear QMom                               R   N=           2
  0.00000000E+00  0.00000000E+00
Nuclear GFac                               R   N=           2
  0.00000000E+00  0.00000000E+00
MicOpt                                     I   N=           2
          -1          -1
Number of contracted shells                I               30
Number of primitive shells                 I               72
Pure/Cartesian d shells                    I                0
Pure/Cartesian f shells                    I                0
Highest angular momentum                   I                3
Largest degree of contraction              I                8
Shell types                                I   N=          30
           0           0           0           0           0           0
           1           1           1          -2          -2          -2
           1          -2          -3           0           0           0
           0           0           0           1           1           1
          -2          -2          -2           1          -2          -3
Number of primitives per shell             I   N=          30
           8           4           2           1           1           1
           6           3           1           4           1           1
           1           1           1           8           4           2
           1           1           1           6           3           1
           4           1           1           1           1           1
Shell to atom map                          I   N=          30
           1           1           1           1           1           1
           1           1           1           1           1           1
           1           1           1           2           2           2
           2           2           2           2           2           2
           2           2           2           2           2           2
Primitive exponents                        R   N=          72
  2.54477807E+05  3.81317971E+04  8.67529306E+03  2.45500998E+03  7.99162178E+02
  2.86900215E+02  1.11254132E+02  4.38641526E+01  2.79326692E+02  8.62747324E+01
  1.35557561E+01  5.69781128E+00  8.56365826E+00  1.39882968E+00  5.72881711E-01
  9.00961713E-02  3.41258851E-02  1.30643989E+03  3.09253114E+02  9.89962740E+01
  3.67569165E+01  1.45666571E+01  5.87399374E+00  2.28909997E+01  3.08550018E+00
  1.21323291E+00  4.49316807E-01  4.37200745E+01  1.23912427E+01  4.26394420E+00
  1.55252218E+00  5.37619295E-01  1.64931731E-01  1.20675000E-01  5.10000000E-02
  1.14700000E+00  2.54477807E+05  3.81317971E+04  8.67529306E+03  2.45500998E+03
  7.99162178E+02  2.86900215E+02  1.11254132E+02  4.38641526E+01  2.79326692E+02
  8.62747324E+01  1.35557561E+01  5.69781128E+00  8.56365826E+00  1.39882968E+00
  5.72881711E-01  9.00961713E-02  3.41258851E-02  1.30643989E+03  3.09253114E+02
  9.89962740E+01  3.67569165E+01  1.45666571E+01  5.87399374E+00  2.28909997E+01
  3.08550018E+00  1.21323291E+00  4.49316807E-01  4.37200745E+01  1.23912427E+01
  4.26394420E+00  1.55252218E+00  5.37619295E-01  1.64931731E-01  1.20675000E-01
  5.10000000E-02  1.14700000E+00
Contraction coefficients                   R   N=          72
  2.42904776E-04  1.88435236E-03  9.80095844E-03  3.98250087E-02  1.29405437E-01
  3.06290018E-01  4.34628350E-01  2.24695629E-01 -2.43633579E-02 -1.15114954E-01
  5.50922663E-01  5.36113547E-01 -3.71230177E-01  1.16811695E+00  1.00000000E+00
  1.00000000E+00  1.00000000E+00  2.82928007E-03  2.27766292E-02  1.05645619E-01
  2.99499449E-01  4.77062454E-01  2.76542344E-01 -1.94121061E-02  3.86188758E-01
  6.76239089E-01  1.00000000E+00  2.20932593E-02  1.28014388E-01  3.86529103E-01
  6.41033014E-01  1.00000000E+00  1.00000000E+00  1.00000000E+00  1.00000000E+00
  1.00000000E+00  2.42904776E-04  1.88435236E-03  9.80095844E-03  3.98250087E-02
  1.29405437E-01  3.06290018E-01  4.34628350E-01  2.24695629E-01 -2.43633579E-02
 -1.15114954E-01  5.50922663E-01  5.36113547E-01 -3.71230177E-01  1.16811695E+00
  1.00000000E+00  1.00000000E+00  1.00000000E+00  2.82928007E-03  2.27766292E-02
  1.05645619E-01  2.99499449E-01  4.77062454E-01  2.76542344E-01 -1.94121061E-02
  3.86188758E-01  6.76239089E-01  1.00000000E+00  2.20932593E-02  1.28014388E-01
  3.86529103E-01  6.41033014E-01  1.00000000E+00  1.00000000E+00  1.00000000E+00
  1.00000000E+00  1.00000000E+00
Coordinates of each shell                  R   N=          90
  0.00000000E+00  0.00000000E+00  0.00000000E+00  0.00000000E+00  0.00000000E+00
  0.00000000E+00  0.00000000E+00  0.00000000E+00  0.00000000E+00  0.00000000E+00
  0.00000000E+00  0.00000000E+00  0.00000000E+00  0.00000000E+00  0.00000000E+00
  0.00000000E+00  0.00000000E+00  0.00000000E+00  0.00000000E+00  0.00000000E+00
  0.00000000E+00  0.00000000E+00  0.00000000E+00  0.00000000E+00  0.00000000E+00
  0.00000000E+00  0.00000000E+00  0.00000000E+00  0.00000000E+00  0.00000000E+00
  0.00000000E+00  0.00000000E+00  0.00000000E+00  0.00000000E+00  0.00000000E+00
  0.00000000E+00  0.00000000E+00  0.00000000E+00  0.00000000E+00  0.00000000E+00
  0.00000000E+00  0.00000000E+00  0.00000000E+00  0.00000000E+00  0.00000000E+00
  0.00000000E+00  0.00000000E+00  7.55890453E+00  0.00000000E+00  0.00000000E+00
  7.55890453E+00  0.00000000E+00  0.00000000E+00  7.55890453E+00  0.00000000E+00
  0.00000000E+00  7.55890453E+00  0.00000000E+00  0.00000000E+00  7.55890453E+00
  0.00000000E+00  0.00000000E+00  7.55890453E+00  0.00000000E+00  0.00000000E+00
  7.55890453E+00  0.00000000E+00  0.00000000E+00  7.55890453E+00  0.00000000E+00
  0.00000000E+00  7.55890453E+00  0.00000000E+00  0.00000000E+00  7.55890453E+00
  0.00000000E+00  0.00000000E+00  7.55890453E+00  0.00000000E+00  0.00000000E+00
  7.55890453E+00  0.00000000E+00  0.00000000E+00  7.55890453E+00  0.00000000E+00
  0.00000000E+00  7.55890453E+00  0.00000000E+00  0.00000000E+00  7.55890453E+00
Constraint Structure                       R   N=           6
  0.00000000E+00  0.00000000E+00  0.00000000E+00  0.00000000E+00  0.00000000E+00
  7.55890453E+00
Num ILSW                                   I              100
ILSW                                       I   N=         100
           0           0           0           0           2           1
           0           0           0           0           0          -1
           0           0           0           0           0           0
           0           0           0           0           0           0
           1           1           0           0           0           0
           0           0      100000           0          -1           0
           0           0           0           0           0           0
           0           0           0           1           0           0
           0           0           1           0           0           0
           0           0           4          40           0           0
           0           0           0           0           0           0
           0           0           0           0           0           0
           0           0           0           0           0           0
           0           0           0           0           0           0
           0           0           0           0           0           0
           0           0           0           0           0           0
           0           0           0           0
Num RLSW                                   I               40
RLSW                                       R   N=          40
  1.00000000E+00  1.00000000E+00  1.00000000E+00  1.00000000E+00  1.00000000E+00
  0.00000000E+00  0.00000000E+00  1.00000000E+00  0.00000000E+00  0.00000000E+00
  0.00000000E+00  0.00000000E+00  1.00000000E+00  0.00000000E+00  0.00000000E+00
  0.00000000E+00  0.00000000E+00  1.00000000E+00  0.00000000E+00  0.00000000E+00
  0.00000000E+00  0.00000000E+00  1.00000000E+00  0.00000000E+00  0.00000000E+00
  0.00000000E+00  0.00000000E+00  1.00000000E+00  0.00000000E+00  0.00000000E+00
  0.00000000E+00  0.00000000E+00  1.00000000E+00  0.00000000E+00  0.00000000E+00
  0.00000000E+00  0.00000000E+00  0.00000000E+00  1.00000000E+00  1.00000000E+00
ECP-MxAtEC                                 I           250000
ECP-MaxLECP                                I               10
ECP-MaxAtL                                 I          2250000
ECP-MxTECP                                 I         11250000
ECP-LenNCZ                                 I                0
ECP-KFirst                                 I   N=          20
           0           0           0           0           0           0
           0           0           0           0           0           0
           0           0           0           0           0           0
           0           0
ECP-KLast                                  I   N=          20
           0           0           0           0           0           0
           0           0           0           0           0           0
           0           0           0           0           0           0
           0           0
ECP-LMax                                   I   N=           2
           0           0
ECP-LPSkip                                 I   N=           2
           1           1
ECP-RNFroz                                 R   N=           2
  0.00000000E+00  0.00000000E+00
ECP-NLP                                    I                0
ECP-CLP1                                   R      0.000000000000000E+00
ECP-CLP2                                   R      0.000000000000000E+00
ECP-ZLP                                    R      0.000000000000000E+00
MxBond                                     I                1
NBond                                      I   N=           2
           0           0
IBond                                      I   N=           2
           0           0
RBond                                      R   N=           2
  0.00000000E+00  0.00000000E+00
Virial Ratio                               R      2.000025260610248E+00
SCF Energy                                 R     -2.086670643535294E+03
Total Energy                               R     -2.086670643535294E+03
S**2                                       R      5.898514692580861E+00
S**2 after annihilation                    R      1.824398861277378E+01
RMS Density                                R      1.915882148184216E-09
External E-field                           R   N=          35
  0.00000000E+00  0.00000000E+00  0.00000000E+00  0.00000000E+00  0.00000000E+00
  0.00000000E+00  0.00000000E+00  0.00000000E+00  0.00000000E+00  0.00000000E+00
  0.00000000E+00  0.00000000E+00  0.00000000E+00  0.00000000E+00  0.00000000E+00
  0.00000000E+00  0.00000000E+00  0.00000000E+00  0.00000000E+00  0.00000000E+00
  0.00000000E+00  0.00000000E+00  0.00000000E+00  0.00000000E+00  0.00000000E+00
  0.00000000E+00  0.00000000E+00  0.00000000E+00  0.00000000E+00  0.00000000E+00
  0.00000000E+00  0.00000000E+00  0.00000000E+00  0.00000000E+00  0.00000000E+00
IOpCl                                      I                0
IROHF                                      I                0
Alpha Orbital Energies                     R   N=          90
  2.00000000E+00  2.00000000E+00  2.00000000E+00  2.00000000E+00  2.00000000E+00
  2.00000000E+00  2.00000000E+00  2.00000000E+00  2.00000000E+00  2.00000000E+00
  2.00000000E+00  2.00000000E+00  2.00000000E+00  2.00000000E+00  2.00000000E+00
  2.00000000E+00  2.00000000E+00  2.00000000E+00  1.37903074E+00  1.01494521E+00
  1.01432147E+00  1.01432143E+00  1.00243934E+00  1.00243929E+00  9.97560710E-01
  9.97560659E-01  9.85678697E-01  9.85678658E-01  9.85091379E-01  6.20932415E-01
  0.00000000E+00  0.00000000E+00  0.00000000E+00  0.00000000E+00  0.00000000E+00
  0.00000000E+00  0.00000000E+00  0.00000000E+00  0.00000000E+00  0.00000000E+00
  0.00000000E+00  0.00000000E+00  0.00000000E+00  0.00000000E+00  0.00000000E+00
  0.00000000E+00  0.00000000E+00  0.00000000E+00  0.00000000E+00  0.00000000E+00
  0.00000000E+00  0.00000000E+00  0.00000000E+00  0.00000000E+00  0.00000000E+00
  0.00000000E+00  0.00000000E+00  0.00000000E+00  0.00000000E+00  0.00000000E+00
  0.00000000E+00  0.00000000E+00  0.00000000E+00  0.00000000E+00  0.00000000E+00
  0.00000000E+00  0.00000000E+00  0.00000000E+00  0.00000000E+00  0.00000000E+00
  0.00000000E+00  0.00000000E+00  0.00000000E+00  0.00000000E+00  0.00000000E+00
  0.00000000E+00  0.00000000E+00  0.00000000E+00  0.00000000E+00  0.00000000E+00
  0.00000000E+00  0.00000000E+00  0.00000000E+00  0.00000000E+00  0.00000000E+00
  0.00000000E+00  0.00000000E+00  0.00000000E+00  0.00000000E+00  0.00000000E+00
Alpha MO coefficients                      R   N=        8100
 -6.84356390E-01 -4.77448850E-03  1.56050298E-03 -1.01359519E-03  3.16843354E-04
 -1.59942755E-04  3.65347668E-14  1.34519323E-13 -5.20048278E-07 -3.64047779E-14
  1.12629473E-13  5.19826179E-06  4.38596766E-14 -1.92141424E-13 -1.36327759E-05
  2.50967245E-06 -1.73905220E-14  4.11353925E-15 -1.51313517E-13  1.49615261E-13
 -8.63959196E-06  5.48507976E-14 -5.32930292E-14  6.48056833E-14 -2.51601197E-13
  1.37270500E-05  2.14333872E-14 -8.53527734E-14  2.38656666E-14  4.77522910E-14
 -3.93315515E-14  4.59757892E-14  1.76669485E-05  1.60557664E-05 -1.26083058E-14
 -1.85828690E-14 -3.89335165E-15 -5.41138192E-14  4.30303597E-07 -6.35769668E-15
  2.79371657E-13 -4.04810175E-14  7.96455984E-14 -3.77143456E-14 -3.91048369E-15
  7.26151316E-01  5.06613257E-03 -1.65537499E-03  1.07477749E-03 -3.36504445E-04
  1.68699401E-04 -2.37601432E-13  6.91373020E-13 -4.45263900E-07 -2.21733100E-13
 -5.29999544E-14  5.00304565E-06  3.41140291E-13 -1.03825195E-13 -1.32123612E-05
 -2.49402126E-06  9.07542077E-14  9.17568965E-14 -1.59835168E-13  1.36067661E-13
  8.61383436E-06 -7.48521630E-14 -2.02659298E-13 -5.15581338E-14 -1.35802471E-13
 -1.40531790E-05 -9.04940224E-14  5.45732527E-14  6.57534759E-14  1.18582643E-13
 -4.45386088E-14 -1.15986105E-14  1.76453639E-05 -1.42468278E-05  4.93406332E-14
 -9.59287834E-15  8.32539885E-14 -1.60256689E-14  4.12623782E-07 -1.14739697E-13
  5.75825401E-14 -7.67545718E-14 -3.40722655E-14 -9.01816600E-15  7.54037826E-14
  7.26151667E-01  5.06704254E-03 -1.64853042E-03  1.06334019E-03 -3.41444064E-04
  1.52630041E-04 -3.89368072E-14 -1.29924773E-13 -1.24762243E-06  3.90660788E-14
 -1.60176381E-13  3.14296442E-06 -7.09180118E-14  2.39885800E-13 -6.69641199E-06
  1.89971297E-07 -7.49257308E-15  3.84431523E-14 -5.83368415E-14  1.41924446E-14
 -1.79020119E-07  3.44546656E-14 -3.49037359E-14  4.30814641E-14  1.01661020E-13
 -5.91473181E-06 -1.78539054E-13  1.85486249E-14  3.40902666E-16 -5.19301252E-14
  1.05317773E-13 -3.09983878E-14 -1.58951025E-07  3.00753653E-05  1.40901452E-13
  5.86664126E-14  1.76808625E-13  7.49326007E-14  2.85842156E-07  2.69408068E-14
 -5.85311324E-16 -2.40922543E-14 -6.93503414E-15 -6.62327014E-14 -6.45213500E-16
  6.84356761E-01  4.77545404E-03 -1.55324039E-03  1.00145939E-03 -3.22084645E-04
  1.42892011E-04 -2.12903615E-13  6.69090482E-13  1.27622568E-06 -2.60912199E-13
 -1.11217038E-13 -3.44524084E-06  4.44777337E-13 -2.27293361E-14  7.49186371E-06
  3.38236113E-07 -4.58613140E-14  3.10447284E-14 -6.95538429E-14  1.28007387E-13
 -6.90258282E-07 -1.48391819E-13 -1.99067272E-13  1.30474569E-13 -1.02018463E-13
 -5.09157275E-06  1.82738663E-13  1.74318547E-13 -1.32830753E-13  2.10030296E-14
 -2.05720229E-13 -2.90152067E-14 -8.87392279E-07  3.09732648E-05 -1.65201757E-14
 -4.73901764E-14  3.92759555E-15  5.76672873E-14 -3.10819126E-07  1.09562427E-14
  1.55748196E-14 -2.04839758E-14  7.47551293E-14 -9.79972881E-14  3.71050244E-14
 -2.19912456E-01  7.30998292E-01  2.33752700E-02 -6.10177665E-03  1.58846088E-03
 -6.92503701E-04 -1.29513351E-11 -6.36350533E-11 -9.01630039E-05 -2.28960306E-12
  4.66050736E-12  1.46750504E-05  2.59233548E-12 -3.76424785E-12 -5.58770906E-05
  5.95530375E-06 -2.71606898E-11  7.57097877E-12 -3.78813289E-11  3.05738565E-11
 -3.94180514E-05  2.94941052E-11  7.75047982E-12  2.13813441E-11 -4.07999043E-11
  6.12589365E-05 -1.09386496E-11 -2.57900973E-11  2.05820035E-11  7.06168032E-12
 -2.79869396E-12 -1.30963665E-11  7.92041048E-05  6.71515707E-05 -9.96926861E-12
 -2.63126126E-11 -1.24769818E-12 -2.83893231E-12  1.39778594E-06 -1.56277015E-12
  4.86209619E-11 -1.16376480E-11  1.31640867E-11 -1.03551771E-11  8.85205217E-14
  2.21254819E-01 -7.35460309E-01 -2.35176342E-02  6.13887638E-03 -1.59858724E-03
  6.95911222E-04  8.41632133E-11 -1.78133194E-10 -9.06588357E-05 -7.36911943E-12
 -5.42339651E-12  1.45160287E-05  9.68492400E-12 -1.12366560E-11 -5.56860048E-05
 -5.97883434E-06  3.82331542E-11  1.44756707E-11 -2.00637047E-11  1.52745730E-11
  3.93739113E-05 -7.30015010E-12 -3.14716687E-11 -1.65965699E-11 -3.45923383E-11
 -6.14112634E-05 -3.73988636E-11  1.82958324E-11  5.34940102E-11  2.97000907E-11
  7.39709538E-12  1.61749905E-11  7.92116026E-05 -6.63482070E-05  1.17818219E-11
 -2.01699830E-11  2.50817856E-11 -8.14110411E-12  1.38888313E-06 -2.00072411E-11
  1.11565856E-11 -1.52248872E-11 -4.66990375E-13 -5.82147745E-12  1.56187947E-11
  2.21259149E-01 -7.35465735E-01 -2.34657590E-02  6.11513350E-03 -1.66889405E-03
  5.62063911E-04  1.33754441E-11  6.46205212E-11  8.17652682E-05  8.66479163E-13
 -7.75609273E-12  2.60855490E-05 -5.82878494E-13  1.17903817E-11 -3.12284903E-05
 -3.89445917E-06  2.20853205E-11  1.44855208E-11  1.23533894E-11  4.89720492E-12
 -7.13380162E-06  3.51357028E-12 -4.25512011E-11 -6.64501877E-12  4.01153414E-12
 -2.52178035E-05 -6.67624330E-12  1.83002903E-11 -1.80879633E-12  4.16471283E-13
  3.15136172E-12  1.52386810E-12 -1.47358276E-06  1.31810674E-04  2.22312608E-12
 -3.37792180E-12 -3.07063286E-13  7.37737631E-13  1.45561759E-06 -1.72652911E-11
  1.75325566E-11 -4.67398434E-12 -9.95312126E-12 -1.39430648E-11 -8.18059659E-12
  2.19916813E-01 -7.31003751E-01 -2.33230784E-02  6.07788905E-03 -1.65919686E-03
  5.57839411E-04  8.35278925E-11 -1.76331083E-10 -8.12150156E-05 -7.38558999E-12
 -9.13930671E-12 -2.61743794E-05  1.30459349E-11 -1.30338744E-14  3.15679628E-05
 -3.85809577E-06  9.28293632E-12 -3.43218848E-11 -1.58975797E-11 -1.62635059E-11
 -7.37355409E-06 -1.37608663E-11  2.63420605E-11  1.66527202E-11 -5.24560086E-13
 -2.48445413E-05  1.05368400E-11 -1.31115161E-11 -3.16957600E-12 -7.46114000E-12
 -1.63767577E-12 -2.61329680E-12  9.91554603E-07  1.32216877E-04  2.30099858E-12
  9.91388948E-12 -2.78888096E-16  1.46892719E-12 -1.46409924E-06  8.72983086E-13
  2.24772014E-12  2.09928545E-12 -1.01310825E-11  2.11426149E-11 -1.40070482E-11
  4.16370033E-12  2.14266006E-14  3.29670491E-11 -9.06604995E-11 -3.29183817E-11
  5.22456468E-10 -5.41472912E-01 -4.38137842E-01  3.14897825E-07 -1.18104612E-02
 -9.55654335E-03  6.95312926E-09  2.36680262E-03  1.91511730E-03 -1.62527310E-09
  1.64247611E-11  1.22454953E-05  9.90844107E-06  4.17044562E-11  9.38153558E-12
 -6.61980217E-11 -1.81554510E-05 -1.46895354E-05 -3.91337220E-11 -1.83253478E-11
  1.74057241E-10  5.26871200E-05  4.26282985E-05  1.10876226E-11  8.18849264E-15
 -6.99237847E-04 -5.65789890E-04  8.88301414E-10  1.99448728E-10 -1.84245275E-04
 -1.49070828E-04 -1.13918889E-11 -8.05676300E-12  5.81601560E-12 -1.19147155E-06
 -9.64088567E-07 -2.19543625E-12  4.85126501E-13 -3.13428834E-11 -1.04209355E-11
  5.54526075E-11 -1.94477679E-10 -1.92713158E-11  4.13187874E-11  1.22105305E-10
 -4.94699617E-10  5.49329276E-01  4.44436293E-01  1.03166854E-06  1.19815065E-02
  9.69367042E-03  2.25565328E-08 -2.40031931E-03 -1.94198764E-03 -4.66002123E-09
  5.09137313E-12  1.23672476E-05  1.00059238E-05  2.29581100E-11  4.20439467E-12
  1.53189786E-11 -1.80865962E-05 -1.46341653E-05  2.15188098E-11  3.39779746E-12
 -4.34419044E-11  5.23721489E-05  4.23757337E-05 -4.38851428E-11  8.38498187E-12
  7.08051737E-04  5.72855975E-04  1.60545369E-09 -2.78053177E-10 -1.83419223E-04
 -1.48408600E-04  4.89577972E-13 -1.51398964E-11  1.59694940E-11  1.19111300E-06
  9.63710542E-07  6.73487473E-12  3.14485537E-11  2.31904994E-11  2.94285686E-11
  2.21360210E-11 -7.47825695E-11 -6.74523191E-12 -5.47591771E-12  4.00760003E-11
 -4.14081412E-11  4.38132741E-01 -5.41539015E-01 -2.66068484E-07  9.55643228E-03
 -1.18119004E-02 -5.79864610E-09 -1.91509553E-03  2.36708467E-03  1.14578341E-09
  2.85398034E-11 -9.90829999E-06  1.22465691E-05  2.25951877E-11  9.77895303E-12
 -1.77909038E-11  1.46895001E-05 -1.81549356E-05 -1.44118688E-11  6.20174843E-12
  1.64961175E-11 -4.26284709E-05  5.26845158E-05  1.25413014E-11 -1.21707342E-11
  5.65784144E-04 -6.99312090E-04 -3.15422378E-10 -3.39762400E-11  1.49071302E-04
 -1.84238505E-04  1.16171878E-11  1.51384236E-11  6.53058021E-12  9.64045903E-07
 -1.19145384E-06 -3.96409077E-11 -3.77078738E-11  2.17190103E-11  3.46872368E-11
  6.54799932E-11 -2.20507533E-10 -1.08818160E-11 -5.98407533E-12  1.80422177E-11
  5.48723236E-11 -4.44441323E-01  5.49264110E-01  1.59973909E-07 -9.69377992E-03
  1.19800877E-02  3.47062819E-09  1.94200910E-03 -2.40004134E-03 -6.48524139E-10
  1.56312710E-11 -1.00059769E-05  1.23662071E-05 -4.44577234E-11 -1.37674815E-12
 -1.62484878E-11  1.46340891E-05 -1.80871330E-05  3.15538665E-11  1.97545538E-11
  4.19936010E-11 -4.23755080E-05  5.23747891E-05 -1.15959703E-11 -4.96700018E-12
 -5.72861604E-04  7.07978696E-04  1.10152172E-10  4.08074615E-12  1.48408006E-04
 -1.83426270E-04 -7.28858890E-13  4.25480287E-13 -1.37355261E-11 -9.63726302E-07
  1.19104825E-06 -2.09343800E-12  3.91590311E-11  3.71201150E-11 -1.25993349E-11
  5.43600151E-12 -3.56635027E-11 -5.35644971E-11  1.11737885E-10 -4.35461997E-11
 -3.21515475E-10 -5.47559503E-01 -4.46623556E-01  2.01264894E-07 -1.19213767E-02
 -9.72381444E-03  4.30865205E-09  2.33639342E-03  1.90570461E-03 -6.52166497E-10
 -3.12863377E-11  8.50473256E-06  6.93681090E-06  1.30690092E-11 -1.46610560E-11
  9.46398946E-11  4.64363330E-06  3.78884324E-06 -1.79545720E-12  1.01605013E-12
 -1.71465784E-10 -2.14207652E-05 -1.74761021E-05 -2.74951131E-12 -4.88084560E-12
 -6.14953255E-04 -5.01589174E-04 -1.65757271E-10 -9.84925295E-11  5.58411267E-05
  4.55604002E-05  6.83839622E-12  2.55558168E-12  2.94985115E-11  2.09270397E-08
  1.71215223E-08 -1.46576871E-11  2.63621975E-11 -2.78396562E-11  2.97502554E-12
 -5.56198012E-11  1.87343391E-10 -2.83603962E-12  7.41616044E-12 -1.29435454E-10
  3.12544133E-10 -5.39728389E-01 -4.40294441E-01 -1.01059901E-06 -1.17505688E-02
 -9.58576733E-03 -2.20620596E-08  2.30216924E-03  1.87804459E-03  4.46440731E-09
  2.94731929E-13 -8.32810972E-06 -6.79406181E-06 -1.32134465E-11 -1.18806294E-11
 -6.68962718E-12 -4.90376188E-06 -3.99905236E-06 -5.87906610E-12  4.44004074E-12
 -1.92819541E-11  2.21750110E-05  1.80856332E-05  6.06816218E-12 -8.03537055E-12
 -6.04850021E-04 -4.93423723E-04 -1.37498208E-09  2.10751887E-10 -5.84806794E-05
 -4.76936909E-05 -6.06281034E-12  1.28316043E-11  1.00590836E-11  3.79983326E-08
  3.09725979E-08  3.73934186E-12 -1.33188960E-11 -1.15237580E-11 -4.03999061E-11
  2.21610884E-11 -8.53048171E-11 -3.81602444E-11  5.85379994E-11  2.53631097E-13
 -1.59324300E-10  4.46628845E-01 -5.47494358E-01 -3.00988364E-07  9.72392980E-03
 -1.19199557E-02 -6.59565541E-09 -1.90572773E-03  2.33610867E-03  1.38946135E-09
 -8.86630023E-12 -6.93687817E-06  8.50330674E-06  3.03348602E-11  2.87189988E-11
  4.51259807E-11 -3.78872083E-06  4.64576510E-06 -1.61531767E-11 -2.86125647E-11
 -4.85993395E-11  1.74756000E-05 -2.14270870E-05  3.16940473E-12  2.27057466E-11
  5.01595993E-04 -6.14869139E-04 -5.19313778E-10 -9.33822150E-11 -4.55586290E-05
  5.58632534E-05  9.90622560E-12  4.82115430E-12  4.49152259E-11 -1.71586812E-08
  2.10705324E-08  1.15963326E-11  1.43510407E-11 -2.07340051E-11 -1.45076582E-11
 -6.57971903E-11  2.28324314E-10  2.41065417E-11 -4.46281133E-11 -8.74344334E-12
  1.80527438E-10  4.40289076E-01 -5.39794471E-01 -1.93410571E-07  9.58565031E-03
 -1.17520101E-02 -4.25328207E-09 -1.87802115E-03  2.30245799E-03  9.40962446E-10
 -1.24803506E-11  6.79388362E-06 -8.32956488E-06  1.27262832E-11 -3.86716115E-11
 -1.16789451E-11  3.99930676E-06 -4.90163116E-06 -1.84439220E-11  1.57033017E-11
  4.67331917E-11 -1.80861718E-05  2.21687398E-05  2.31065595E-11  2.31193896E-13
  4.93416819E-04 -6.04935192E-04 -4.17142830E-10  8.81977707E-11  4.76954551E-05
 -5.84586199E-05  8.69926427E-12 -1.87174479E-12 -2.07433564E-12 -3.09361496E-08
  3.79057655E-08  3.66756593E-11  3.96972247E-11  2.66336458E-13  2.80701889E-11
 -2.59191302E-05  1.01860448E-04  3.94244717E-05 -8.74240798E-05 -5.67636244E-05
  5.03830876E-04  3.93726741E-07 -7.09309934E-08  7.00454493E-01  8.60005179E-09
 -1.52790189E-09  1.53594816E-02 -1.74714725E-09  2.56229530E-10 -3.28154075E-03
  9.56979409E-06  1.00472382E-11  5.91579817E-12  5.69759592E-11 -6.96052030E-11
 -6.57514721E-05 -1.25293506E-11 -4.28138149E-12 -4.10356965E-11  9.48665863E-11
  1.31046416E-04 -5.08417191E-11 -2.44655271E-11 -1.93076861E-11 -4.30564005E-11
  5.40109616E-10  8.82962004E-13  1.30047782E-03  2.39495928E-04  2.25016004E-10
  2.08836876E-10  4.50473801E-12  1.51171381E-11  3.68604025E-06  9.60524008E-12
 -6.95922839E-11  3.89632982E-11 -8.82526155E-12  6.07497004E-12  1.94022237E-11
  2.60107542E-05 -1.02136795E-04 -3.93283039E-05  8.71990341E-05  5.70914188E-05
 -5.03798961E-04 -7.17988018E-07 -8.30307257E-07  7.02681360E-01 -1.56568222E-08
 -1.80984407E-08  1.54079349E-02  3.12773154E-09  3.59595647E-09 -3.29093317E-03
 -9.48695868E-06  2.36769477E-12 -4.64079649E-11  1.97672149E-11 -1.01549272E-11
  6.56226063E-05 -4.55410903E-13  5.25886663E-11  2.16033017E-11  3.08793949E-11
 -1.30711956E-04 -5.30470034E-14 -4.89932247E-11 -5.07556129E-11 -3.51787713E-11
 -9.14815266E-10 -1.01776331E-09  1.30269533E-03 -2.39702009E-04  1.63183817E-10
  1.17255961E-10 -4.55295643E-11  1.44633989E-11  3.68006422E-06  4.60892296E-12
  2.13326716E-12  2.12887979E-11  6.71891271E-12  1.41462651E-11 -5.36330293E-11
  2.89141901E-05 -8.72477361E-05  3.02342929E-05 -7.07657695E-05  1.03367709E-04
  9.25331811E-06 -3.64201203E-07  4.45932109E-08 -7.02705112E-01 -7.92790438E-09
  9.88914750E-10 -1.52899917E-02  1.54484424E-09 -2.34790545E-10  2.96434521E-03
  2.60687259E-05  8.40148263E-12 -2.28998514E-11  3.61797269E-12 -1.29135425E-11
 -4.04840427E-05  8.72462056E-13  1.21652196E-11  4.39713473E-12  4.63598196E-12
  1.05151488E-04 -3.59189362E-11 -4.86799767E-11  1.92503678E-12 -2.85302938E-12
 -3.85784305E-10  1.17779808E-10 -7.00704778E-04 -6.52992082E-05  1.04173644E-10
  1.68063464E-10  7.07592431E-12  1.05972999E-12  1.88016351E-06 -8.59099937E-14
  2.07324980E-12 -4.55211945E-13 -7.60453638E-12 -7.01389918E-12  1.90055486E-12
  2.88317580E-05 -8.69239249E-05  3.03592906E-05 -7.10429080E-05  1.03187018E-04
  1.08524313E-05 -6.44418301E-07 -7.31355509E-07  7.00478321E-01 -1.40367911E-08
 -1.59413299E-08  1.52411635E-02  2.76393592E-09  3.16310094E-09 -2.95391469E-03
  2.60990054E-05  2.94001333E-11 -1.33201650E-11 -1.16367473E-11  5.40807624E-12
 -4.06925537E-05 -2.49390935E-11  1.03469906E-11  1.62555256E-11 -6.25333764E-12
  1.05566917E-04  2.83126049E-11 -2.11282628E-11 -1.26012407E-11 -2.04291980E-12
 -7.49568436E-10 -8.85970042E-10  6.96573518E-04 -6.45387191E-05 -9.47637249E-12
  9.48769272E-11  4.99474733E-12  5.18713786E-12 -1.89186985E-06 -1.04434315E-11
  2.96262397E-12  1.57350729E-12  5.25945901E-12 -1.24828094E-11  6.11159477E-12
 -7.90198348E-02  3.13259588E-01 -4.47833468E-01 -3.30999822E-01 -1.03885023E-02
  3.38440064E-03 -5.68513265E-11 -7.43606446E-11 -2.18160028E-04  1.43581151E-10
  1.69273853E-10  4.77023690E-04  5.34028471E-12  8.72026182E-11  2.54630477E-04
 -7.58198750E-06 -2.47779850E-11  7.55822392E-11  3.16865615E-11  1.48941173E-10
  1.63126304E-05 -8.87647413E-11  1.38640022E-10  2.04451311E-10  9.72830578E-12
 -1.11705127E-05  1.10836458E-10 -5.52125056E-11  3.04983533E-11  3.18038305E-11
 -1.79678188E-11  4.47069989E-12  3.42432763E-05  4.34115500E-04 -1.62772747E-11