[Molden Format]
[N_ATOMS]
                    2
[ATOMS] (AU)
CR1         1     24           0.00000000      0.00000000      0.00000000
CR2         2     24           0.00000000      0.00000000      7.55890454
[5D]
[7F]
[CHARGE] (MULLIKEN)
   0.0000000000000000     
   0.0000000000000000     
[GTO] (AU)
   1
   s   8
  0.254477807E+06  0.242904776E-03
  0.381317971E+05  0.188435236E-02
  0.867529306E+04  0.980095844E-02
  0.245500998E+04  0.398250087E-01
  0.799162178E+03  0.129405437E+00
  0.286900215E+03  0.306290018E+00
  0.111254132E+03  0.434628350E+00
  0.438641526E+02  0.224695629E+00
   s   4
  0.279326692E+03 -0.243633579E-01
  0.862747324E+02 -0.115114954E+00
  0.135557561E+02  0.550922663E+00
  0.569781128E+01  0.536113547E+00
   s   2
  0.856365826E+01 -0.371230176E+00
  0.139882968E+01  0.116811695E+01
   s   1
  0.572881711E+00  0.100000000E+01
   s   1
  0.900961713E-01  0.100000000E+01
   s   1
  0.341258851E-01  0.100000000E+01
   p   6
  0.130643989E+04  0.282928007E-02
  0.309253114E+03  0.227766292E-01
  0.989962740E+02  0.105645619E+00
  0.367569165E+02  0.299499449E+00
  0.145666571E+02  0.477062454E+00
  0.587399374E+01  0.276542344E+00
   p   3
  0.228909997E+02 -0.194121061E-01
  0.308550018E+01  0.386188758E+00
  0.121323291E+01  0.676239089E+00
   p   1
  0.449316807E+00  0.100000000E+01
   p   1
  0.120675000E+00  0.100000000E+01
   d   4
  0.437200745E+02  0.220932593E-01
  0.123912427E+02  0.128014388E+00
  0.426394420E+01  0.386529103E+00
  0.155252218E+01  0.641033014E+00
   d   1
  0.537619295E+00  0.100000000E+01
   d   1
  0.164931731E+00  0.100000000E+01
   d   1
  0.510000000E-01  0.100000000E+01
   f   1
  0.114700000E+01  0.100000000E+01
 
   2
   s   8
  0.254477807E+06  0.242904776E-03
  0.381317971E+05  0.188435236E-02
  0.867529306E+04  0.980095844E-02
  0.245500998E+04  0.398250087E-01
  0.799162178E+03  0.129405437E+00
  0.286900215E+03  0.306290018E+00
  0.111254132E+03  0.434628350E+00
  0.438641526E+02  0.224695629E+00
   s   4
  0.279326692E+03 -0.243633579E-01
  0.862747324E+02 -0.115114954E+00
  0.135557561E+02  0.550922663E+00
  0.569781128E+01  0.536113547E+00
   s   2
  0.856365826E+01 -0.371230176E+00
  0.139882968E+01  0.116811695E+01
   s   1
  0.572881711E+00  0.100000000E+01
   s   1
  0.900961713E-01  0.100000000E+01
   s   1
  0.341258851E-01  0.100000000E+01
   p   6
  0.130643989E+04  0.282928007E-02
  0.309253114E+03  0.227766292E-01
  0.989962740E+02  0.105645619E+00
  0.367569165E+02  0.299499449E+00
  0.145666571E+02  0.477062454E+00
  0.587399374E+01  0.276542344E+00
   p   3
  0.228909997E+02 -0.194121061E-01
  0.308550018E+01  0.386188758E+00
  0.121323291E+01  0.676239089E+00
   p   1
  0.449316807E+00  0.100000000E+01
   p   1
  0.120675000E+00  0.100000000E+01
   d   4
  0.437200745E+02  0.220932593E-01
  0.123912427E+02  0.128014388E+00
  0.426394420E+01  0.386529103E+00
  0.155252218E+01  0.641033014E+00
   d   1
  0.537619295E+00  0.100000000E+01
   d   1
  0.164931731E+00  0.100000000E+01
   d   1
  0.510000000E-01  0.100000000E+01
   f   1
  0.114700000E+01  0.100000000E+01
 
[MO]
Sym=     1a  
Ene=  -222.1800
Spin= Alpha
Occup=    2.00000
   1        -0.70688707
   2        -0.00104300
   3        -0.00161020
   4         0.00134762
   5        -0.00044466
   6         0.00021289
   7        -0.00000000
   8        -0.00000000
   9        -0.00000000
  10        -0.00000000
  11        -0.00000000
  12        -0.00000001
  13         0.00000000
  14         0.00000000
  15        -0.00000000
  16         0.00000000
  17        -0.00000000
  18        -0.00000000
  19         0.00000011
  20         0.00000000
  21         0.00000000
  22         0.00000000
  23        -0.00000000
  24         0.00000007
  25        -0.00000000
  26        -0.00000000
  27        -0.00000000
  28        -0.00000000
  29         0.00000004
  30         0.00000000
  31         0.00000000
  32         0.00000000
  33         0.00000000
  34         0.00000000
  35         0.00000000
  36         0.00000000
  37        -0.00000000
  38         0.00000000
  39        -0.00000000
  40         0.00000000
  41         0.00000000
  42        -0.00000000
  43        -0.00000000
  44        -0.00000000
  45        -0.00000000
  46         0.70688707
  47         0.00104300
  48         0.00161020
  49        -0.00134762
  50         0.00044466
  51        -0.00021289
  52         0.00000000
  53        -0.00000000
  54        -0.00000000
  55         0.00000000
  56         0.00000000
  57        -0.00000001
  58         0.00000000
  59        -0.00000000
  60        -0.00000000
  61         0.00000000
  62         0.00000000
  63        -0.00000000
  64        -0.00000011
  65        -0.00000000
  66        -0.00000000
  67        -0.00000000
  68         0.00000000
  69        -0.00000007
  70        -0.00000000
  71         0.00000000
  72         0.00000000
  73        -0.00000000
  74        -0.00000004
  75         0.00000000
  76         0.00000000
  77         0.00000000
  78        -0.00000000
  79        -0.00000000
  80         0.00000000
  81        -0.00000000
  82        -0.00000000
  83         0.00000000
  84         0.00000000
  85         0.00000000
  86        -0.00000000
  87        -0.00000000
  88         0.00000000
  89         0.00000000
  90         0.00000000
Sym=     2a  
Ene=  -222.1800
Spin= Alpha
Occup=    2.00000
   1         0.70688745
   2         0.00104290
   3         0.00160986
   4        -0.00134791
   5         0.00044519
   6        -0.00021256
   7         0.00000000
   8         0.00000000
   9        -0.00000000
  10        -0.00000000
  11         0.00000000
  12        -0.00000001
  13         0.00000000
  14        -0.00000000
  15        -0.00000000
  16         0.00000000
  17         0.00000000
  18        -0.00000000
  19         0.00000011
  20        -0.00000000
  21         0.00000000
  22        -0.00000000
  23         0.00000000
  24         0.00000007
  25        -0.00000000
  26         0.00000000
  27        -0.00000000
  28        -0.00000000
  29         0.00000004
  30        -0.00000000
  31        -0.00000000
  32         0.00000000
  33        -0.00000000
  34         0.00000000
  35         0.00000000
  36        -0.00000000
  37         0.00000000
  38        -0.00000000
  39         0.00000000
  40        -0.00000000
  41         0.00000000
  42        -0.00000000
  43         0.00000000
  44        -0.00000000
  45         0.00000000
  46         0.70688746
  47         0.00104290
  48         0.00160986
  49        -0.00134791
  50         0.00044519
  51        -0.00021256
  52        -0.00000000
  53        -0.00000000
  54         0.00000000
  55        -0.00000000
  56        -0.00000000
  57         0.00000001
  58         0.00000000
  59         0.00000000
  60         0.00000000
  61        -0.00000000
  62         0.00000000
  63         0.00000000
  64         0.00000011
  65         0.00000000
  66         0.00000000
  67         0.00000000
  68        -0.00000000
  69         0.00000007
  70        -0.00000000
  71        -0.00000000
  72         0.00000000
  73         0.00000000
  74         0.00000004
  75         0.00000000
  76        -0.00000000
  77        -0.00000000
  78        -0.00000000
  79         0.00000000
  80         0.00000000
  81        -0.00000000
  82        -0.00000000
  83         0.00000000
  84        -0.00000000
  85         0.00000000
  86         0.00000000
  87         0.00000000
  88        -0.00000000
  89         0.00000000
  90        -0.00000000
Sym=     3a  
Ene=   -26.7800
Spin= Alpha
Occup=    2.00000
   1        -0.21832150
   2         0.73506298
   3         0.01216931
   4         0.00115178
   5        -0.00066517
   6         0.00040353
   7         0.00000000
   8        -0.00000000
   9         0.00000234
  10         0.00000000
  11         0.00000000
  12         0.00000063
  13        -0.00000000
  14         0.00000000
  15         0.00000016
  16        -0.00000000
  17        -0.00000000
  18         0.00000001
  19         0.00000606
  20         0.00000000
  21         0.00000000
  22         0.00000000
  23         0.00000000
  24         0.00000399
  25         0.00000000
  26        -0.00000000
  27        -0.00000000
  28        -0.00000000
  29         0.00000217
  30        -0.00000000
  31        -0.00000000
  32         0.00000000
  33         0.00000000
  34         0.00000022
  35         0.00000000
  36        -0.00000000
  37         0.00000000
  38        -0.00000000
  39        -0.00000000
  40        -0.00000000
  41        -0.00000000
  42         0.00000000
  43        -0.00000000
  44        -0.00000000
  45        -0.00000000
  46        -0.21832150
  47         0.73506298
  48         0.01216931
  49         0.00115178
  50        -0.00066517
  51         0.00040353
  52         0.00000000
  53        -0.00000000
  54        -0.00000234
  55        -0.00000000
  56         0.00000000
  57        -0.00000063
  58         0.00000000
  59        -0.00000000
  60        -0.00000016
  61        -0.00000000
  62         0.00000000
  63        -0.00000001
  64         0.00000606
  65         0.00000000
  66        -0.00000000
  67         0.00000000
  68         0.00000000
  69         0.00000399
  70         0.00000000
  71         0.00000000
  72         0.00000000
  73         0.00000000
  74         0.00000217
  75         0.00000000
  76         0.00000000
  77        -0.00000000
  78        -0.00000000
  79         0.00000022
  80         0.00000000
  81        -0.00000000
  82         0.00000000
  83         0.00000000
  84        -0.00000000
  85         0.00000000
  86        -0.00000000
  87        -0.00000000
  88         0.00000000
  89        -0.00000000
  90         0.00000000
Sym=     4a  
Ene=   -26.7800
Spin= Alpha
Occup=    2.00000
   1         0.21832388
   2        -0.73506388
   3        -0.01218075
   4        -0.00116400
   5         0.00069994
   6        -0.00038147
   7         0.00000000
   8         0.00000000
   9         0.00000220
  10        -0.00000000
  11         0.00000000
  12         0.00000057
  13         0.00000000
  14        -0.00000000
  15         0.00000015
  16         0.00000000
  17         0.00000000
  18         0.00000000
  19         0.00000604
  20        -0.00000000
  21        -0.00000000
  22         0.00000000
  23         0.00000000
  24         0.00000398
  25        -0.00000000
  26         0.00000000
  27        -0.00000000
  28        -0.00000000
  29         0.00000216
  30        -0.00000000
  31        -0.00000000
  32        -0.00000000
  33        -0.00000000
  34         0.00000021
  35         0.00000000
  36        -0.00000000
  37         0.00000000
  38         0.00000000
  39         0.00000000
  40         0.00000000
  41        -0.00000000
  42         0.00000000
  43        -0.00000000
  44         0.00000000
  45         0.00000000
  46        -0.21832388
  47         0.73506388
  48         0.01218075
  49         0.00116400
  50        -0.00069994
  51         0.00038147
  52        -0.00000000
  53         0.00000000
  54         0.00000220
  55        -0.00000000
  56        -0.00000000
  57         0.00000057
  58        -0.00000000
  59         0.00000000
  60         0.00000015
  61         0.00000000
  62        -0.00000000
  63         0.00000000
  64        -0.00000604
  65        -0.00000000
  66         0.00000000
  67         0.00000000
  68         0.00000000
  69        -0.00000398
  70        -0.00000000
  71        -0.00000000
  72         0.00000000
  73        -0.00000000
  74        -0.00000216
  75        -0.00000000
  76        -0.00000000
  77        -0.00000000
  78         0.00000000
  79        -0.00000021
  80         0.00000000
  81         0.00000000
  82         0.00000000
  83        -0.00000000
  84         0.00000000
  85         0.00000000
  86         0.00000000
  87         0.00000000
  88        -0.00000000
  89        -0.00000000
  90        -0.00000000
Sym=     5a  
Ene=   -22.4130
Spin= Alpha
Occup=    2.00000
   1        -0.00000096
   2         0.00000305
   3         0.00000084
   4         0.00000098
   5        -0.00000342
   6        -0.00000216
   7        -0.00000000
   8        -0.00000000
   9        -0.70246675
  10        -0.00000000
  11        -0.00000000
  12        -0.01267011
  13         0.00000000
  14         0.00000000
  15         0.00161503
  16        -0.00000000
  17        -0.00000000
  18        -0.00034069
  19        -0.00000147
  20        -0.00000000
  21        -0.00000000
  22        -0.00000000
  23         0.00000000
  24        -0.00000097
  25        -0.00000000
  26        -0.00000000
  27        -0.00000000
  28         0.00000000
  29        -0.00000053
  30         0.00000000
  31         0.00000000
  32         0.00000000
  33        -0.00000000
  34        -0.00000005
  35         0.00000000
  36        -0.00000000
  37         0.00000000
  38        -0.00000000
  39        -0.00000000
  40         0.00000000
  41        -0.00000000
  42        -0.00000000
  43        -0.00000000
  44         0.00000000
  45        -0.00000000
  46        -0.00000096
  47         0.00000305
  48         0.00000084
  49         0.00000098
  50        -0.00000342
  51        -0.00000216
  52         0.00000000
  53        -0.00000000
  54         0.70246675
  55         0.00000000
  56        -0.00000000
  57         0.01267011
  58        -0.00000000
  59         0.00000000
  60        -0.00161503
  61         0.00000000
  62        -0.00000000
  63         0.00034069
  64        -0.00000147
  65         0.00000000
  66         0.00000000
  67         0.00000000
  68        -0.00000000
  69        -0.00000097
  70         0.00000000
  71         0.00000000
  72         0.00000000
  73         0.00000000
  74        -0.00000053
  75        -0.00000000
  76         0.00000000
  77        -0.00000000
  78         0.00000000
  79        -0.00000005
  80         0.00000000
  81         0.00000000
  82        -0.00000000
  83        -0.00000000
  84        -0.00000000
  85        -0.00000000
  86         0.00000000
  87        -0.00000000
  88        -0.00000000
  89         0.00000000
  90         0.00000000
Sym=     6a  
Ene=   -22.4130
Spin= Alpha
Occup=    2.00000
   1         0.00000000
   2        -0.00000000
   3        -0.00000000
   4        -0.00000000
   5         0.00000000
   6         0.00000000
   7        -0.01076612
   8         0.70238454
   9        -0.00000001
  10        -0.00019418
  11         0.01266817
  12        -0.00000000
  13         0.00002475
  14        -0.00161497
  15         0.00000000
  16        -0.00000522
  17         0.00034065
  18        -0.00000000
  19         0.00000000
  20        -0.00000001
  21         0.00000049
  22        -0.00000000
  23        -0.00000000
  24         0.00000000
  25        -0.00000000
  26         0.00000032
  27         0.00000000
  28        -0.00000000
  29         0.00000000
  30        -0.00000000
  31         0.00000018
  32        -0.00000000
  33        -0.00000000
  34         0.00000000
  35        -0.00000000
  36         0.00000002
  37         0.00000000
  38        -0.00000000
  39        -0.00000000
  40         0.00000000
  41         0.00000000
  42         0.00000000
  43         0.00000000
  44         0.00000000
  45         0.00000000
  46        -0.00000000
  47         0.00000000
  48         0.00000000
  49         0.00000000
  50        -0.00000000
  51        -0.00000000
  52        -0.01076612
  53         0.70238455
  54        -0.00000000
  55        -0.00019418
  56         0.01266817
  57        -0.00000000
  58         0.00002475
  59        -0.00161497
  60         0.00000000
  61        -0.00000522
  62         0.00034065
  63        -0.00000000
  64        -0.00000000
  65         0.00000001
  66        -0.00000049
  67        -0.00000000
  68        -0.00000000
  69        -0.00000000
  70         0.00000000
  71        -0.00000032
  72        -0.00000000
  73        -0.00000000
  74        -0.00000000
  75         0.00000000
  76        -0.00000018
  77         0.00000000
  78         0.00000000
  79        -0.00000000
  80         0.00000000
  81        -0.00000002
  82        -0.00000000
  83        -0.00000000
  84         0.00000000
  85         0.00000000
  86        -0.00000000
  87         0.00000000
  88         0.00000000
  89         0.00000000
  90        -0.00000000
Sym=     7a  
Ene=   -22.4130
Spin= Alpha
Occup=    2.00000
   1         0.00000000
   2        -0.00000000
   3        -0.00000000
   4         0.00000000
   5         0.00000000
   6         0.00000000
   7         0.70238455
   8         0.01076612
   9        -0.00000000
  10         0.01266817
  11         0.00019418
  12        -0.00000000
  13        -0.00161497
  14        -0.00002475
  15         0.00000000
  16         0.00034065
  17         0.00000522
  18        -0.00000000
  19         0.00000000
  20         0.00000049
  21         0.00000001
  22        -0.00000000
  23         0.00000000
  24         0.00000000
  25         0.00000032
  26         0.00000000
  27         0.00000000
  28         0.00000000
  29         0.00000000
  30         0.00000018
  31         0.00000000
  32        -0.00000000
  33        -0.00000000
  34         0.00000000
  35         0.00000002
  36         0.00000000
  37        -0.00000000
  38         0.00000000
  39        -0.00000000
  40         0.00000000
  41         0.00000000
  42         0.00000000
  43         0.00000000
  44        -0.00000000
  45        -0.00000000
  46        -0.00000000
  47         0.00000000
  48         0.00000000
  49         0.00000000
  50        -0.00000000
  51        -0.00000000
  52         0.70238454
  53         0.01076612
  54        -0.00000000
  55         0.01266817
  56         0.00019418
  57        -0.00000000
  58        -0.00161497
  59        -0.00002475
  60         0.00000000
  61         0.00034065
  62         0.00000522
  63        -0.00000000
  64        -0.00000000
  65        -0.00000049
  66        -0.00000001
  67         0.00000000
  68        -0.00000000
  69        -0.00000000
  70        -0.00000032
  71        -0.00000000
  72        -0.00000000
  73         0.00000000
  74        -0.00000000
  75        -0.00000018
  76        -0.00000000
  77         0.00000000
  78        -0.00000000
  79         0.00000000
  80        -0.00000002
  81        -0.00000000
  82         0.00000000
  83         0.00000000
  84         0.00000000
  85        -0.00000000
  86         0.00000000
  87         0.00000000
  88        -0.00000000
  89        -0.00000000
  90        -0.00000000
Sym=     8a  
Ene=   -22.4130
Spin= Alpha
Occup=    2.00000
   1        -0.00000000
   2         0.00000000
   3         0.00000000
   4         0.00000000
   5        -0.00000000
   6        -0.00000000
   7        -0.01546967
   8        -0.70229676
   9         0.00000000
  10        -0.00027901
  11        -0.01266649
  12         0.00000000
  13         0.00003557
  14         0.00161480
  15        -0.00000000
  16        -0.00000750
  17        -0.00034061
  18         0.00000000
  19        -0.00000000
  20         0.00000001
  21         0.00000049
  22        -0.00000000
  23        -0.00000000
  24        -0.00000000
  25         0.00000001
  26         0.00000032
  27         0.00000000
  28         0.00000000
  29        -0.00000000
  30         0.00000000
  31         0.00000018
  32        -0.00000000
  33        -0.00000000
  34        -0.00000000
  35         0.00000000
  36         0.00000002
  37         0.00000000
  38         0.00000000
  39        -0.00000000
  40        -0.00000000
  41         0.00000000
  42        -0.00000000
  43         0.00000000
  44         0.00000000
  45        -0.00000000
  46         0.00000000
  47        -0.00000000
  48        -0.00000000
  49        -0.00000000
  50         0.00000000
  51         0.00000000
  52         0.01546967
  53         0.70229675
  54         0.00000000
  55         0.00027901
  56         0.01266649
  57         0.00000000
  58        -0.00003557
  59        -0.00161480
  60        -0.00000000
  61         0.00000750
  62         0.00034061
  63         0.00000000
  64         0.00000000
  65         0.00000001
  66         0.00000049
  67        -0.00000000
  68         0.00000000
  69         0.00000000
  70         0.00000001
  71         0.00000032
  72        -0.00000000
  73         0.00000000
  74         0.00000000
  75         0.00000000
  76         0.00000018
  77         0.00000000
  78         0.00000000
  79         0.00000000
  80         0.00000000
  81         0.00000002
  82        -0.00000000
  83        -0.00000000
  84        -0.00000000
  85        -0.00000000
  86         0.00000000
  87        -0.00000000
  88        -0.00000000
  89         0.00000000
  90         0.00000000
Sym=     9a  
Ene=   -22.4130
Spin= Alpha
Occup=    2.00000
   1         0.00000000
   2        -0.00000000
   3         0.00000000
   4        -0.00000000
   5         0.00000000
   6        -0.00000000
   7        -0.70229675
   8         0.01546967
   9         0.00000000
  10        -0.01266649
  11         0.00027901
  12         0.00000000
  13         0.00161480
  14        -0.00003557
  15        -0.00000000
  16        -0.00034061
  17         0.00000750
  18         0.00000000
  19        -0.00000000
  20         0.00000049
  21        -0.00000001
  22         0.00000000
  23         0.00000000
  24         0.00000000
  25         0.00000032
  26        -0.00000001
  27        -0.00000000
  28        -0.00000000
  29        -0.00000000
  30         0.00000018
  31        -0.00000000
  32         0.00000000
  33         0.00000000
  34        -0.00000000
  35         0.00000002
  36        -0.00000000
  37        -0.00000000
  38         0.00000000
  39         0.00000000
  40         0.00000000
  41        -0.00000000
  42         0.00000000
  43        -0.00000000
  44         0.00000000
  45         0.00000000
  46         0.00000000
  47         0.00000000
  48         0.00000000
  49        -0.00000000
  50         0.00000000
  51        -0.00000000
  52         0.70229676
  53        -0.01546967
  54         0.00000000
  55         0.01266649
  56        -0.00027901
  57         0.00000000
  58        -0.00161480
  59         0.00003557
  60        -0.00000000
  61         0.00034061
  62        -0.00000750
  63         0.00000000
  64         0.00000000
  65         0.00000049
  66        -0.00000001
  67        -0.00000000
  68        -0.00000000
  69         0.00000000
  70         0.00000032
  71        -0.00000001
  72         0.00000000
  73        -0.00000000
  74         0.00000000
  75         0.00000018
  76        -0.00000000
  77        -0.00000000
  78        -0.00000000
  79        -0.00000000
  80         0.00000002
  81        -0.00000000
  82         0.00000000
  83        -0.00000000
  84         0.00000000
  85        -0.00000000
  86         0.00000000
  87         0.00000000
  88         0.00000000
  89        -0.00000000
  90         0.00000000
Sym=    10a  
Ene=   -22.4130
Spin= Alpha
Occup=    2.00000
   1        -0.00000089
   2         0.00000278
   3         0.00000085
   4         0.00000099
   5        -0.00000340
   6        -0.00000215
   7         0.00000000
   8         0.00000001
   9         0.70246739
  10         0.00000000
  11         0.00000000
  12         0.01266912
  13        -0.00000000
  14        -0.00000000
  15        -0.00161532
  16         0.00000000
  17         0.00000000
  18         0.00034069
  19        -0.00000146
  20        -0.00000000
  21         0.00000000
  22        -0.00000000
  23        -0.00000000
  24        -0.00000096
  25         0.00000000
  26         0.00000000
  27         0.00000000
  28         0.00000000
  29        -0.00000052
  30        -0.00000000
  31         0.00000000
  32         0.00000000
  33        -0.00000000
  34        -0.00000005
  35         0.00000000
  36        -0.00000000
  37        -0.00000000
  38        -0.00000000
  39         0.00000000
  40        -0.00000000
  41        -0.00000000
  42         0.00000000
  43         0.00000000
  44        -0.00000000
  45         0.00000000
  46         0.00000089
  47        -0.00000278
  48        -0.00000085
  49        -0.00000099
  50         0.00000340
  51         0.00000215
  52        -0.00000000
  53         0.00000000
  54         0.70246740
  55        -0.00000000
  56         0.00000000
  57         0.01266912
  58         0.00000000
  59        -0.00000000
  60        -0.00161532
  61        -0.00000000
  62         0.00000000
  63         0.00034069
  64         0.00000146
  65         0.00000000
  66        -0.00000000
  67        -0.00000000
  68         0.00000000
  69         0.00000096
  70         0.00000000
  71        -0.00000000
  72         0.00000000
  73         0.00000000
  74         0.00000052
  75         0.00000000
  76        -0.00000000
  77        -0.00000000
  78        -0.00000000
  79         0.00000005
  80         0.00000000
  81        -0.00000000
  82        -0.00000000
  83         0.00000000
  84        -0.00000000
  85        -0.00000000
  86         0.00000000
  87         0.00000000
  88        -0.00000000
  89        -0.00000000
  90         0.00000000
Sym=    11a  
Ene=    -3.5529
Spin= Alpha
Occup=    2.00000
   1        -0.07798590
   2         0.30880310
   3        -0.46937524
   4        -0.30987792
   5        -0.01057709
   6         0.00303432
   7         0.00000000
   8        -0.00000000
   9        -0.00002414
  10        -0.00000000
  11         0.00000000
  12         0.00005305
  13         0.00000000
  14         0.00000000
  15         0.00001536
  16        -0.00000000
  17        -0.00000000
  18         0.00000036
  19         0.00032476
  20        -0.00000000
  21         0.00000000
  22        -0.00000000
  23         0.00000000
  24         0.00021390
  25         0.00000000
  26        -0.00000000
  27         0.00000000
  28         0.00000000
  29         0.00011646
  30        -0.00000000
  31        -0.00000000
  32         0.00000000
  33         0.00000000
  34         0.00001154
  35         0.00000000
  36        -0.00000000
  37        -0.00000000
  38        -0.00000000
  39         0.00000000
  40        -0.00000000
  41         0.00000000
  42        -0.00000000
  43        -0.00000000
  44        -0.00000000
  45        -0.00000000
  46         0.07798590
  47        -0.30880310
  48         0.46937524
  49         0.30987792
  50         0.01057709
  51        -0.00303432
  52        -0.00000000
  53        -0.00000000
  54        -0.00002414
  55         0.00000000
  56         0.00000000
  57         0.00005305
  58        -0.00000000
  59        -0.00000000
  60         0.00001536
  61         0.00000000
  62         0.00000000
  63         0.00000036
  64        -0.00032476
  65        -0.00000000
  66        -0.00000000
  67        -0.00000000
  68        -0.00000000
  69        -0.00021390
  70        -0.00000000
  71         0.00000000
  72        -0.00000000
  73         0.00000000
  74        -0.00011646
  75         0.00000000
  76        -0.00000000
  77         0.00000000
  78        -0.00000000
  79        -0.00001154
  80         0.00000000
  81        -0.00000000
  82        -0.00000000
  83         0.00000000
  84        -0.00000000
  85         0.00000000
  86         0.00000000
  87        -0.00000000
  88        -0.00000000
  89        -0.00000000
  90         0.00000000
Sym=    12a  
Ene=    -3.5521
Spin= Alpha
Occup=    2.00000
   1         0.07795319
   2        -0.30865611
   3         0.46893959
   4         0.30938740
   5         0.01207876
   6        -0.00208230
   7         0.00000000
   8         0.00000000
   9        -0.00004699
  10        -0.00000000
  11        -0.00000000
  12         0.00010393
  13        -0.00000000
  14        -0.00000000
  15         0.00003009
  16         0.00000000
  17         0.00000000
  18         0.00000071
  19         0.00033588
  20        -0.00000000
  21        -0.00000000
  22         0.00000000
  23        -0.00000000
  24         0.00022123
  25        -0.00000000
  26         0.00000000
  27         0.00000000
  28         0.00000000
  29         0.00012045
  30         0.00000000
  31        -0.00000000
  32        -0.00000000
  33        -0.00000000
  34         0.00001194
  35        -0.00000000
  36         0.00000000
  37        -0.00000000
  38         0.00000000
  39         0.00000000
  40        -0.00000000
  41         0.00000000
  42        -0.00000000
  43         0.00000000
  44         0.00000000
  45         0.00000000
  46         0.07795319
  47        -0.30865611
  48         0.46893959
  49         0.30938740
  50         0.01207876
  51        -0.00208230
  52        -0.00000000
  53         0.00000000
  54         0.00004699
  55         0.00000000
  56        -0.00000000
  57        -0.00010393
  58        -0.00000000
  59         0.00000000
  60        -0.00003009
  61         0.00000000
  62        -0.00000000
  63        -0.00000071
  64         0.00033588
  65        -0.00000000
  66         0.00000000
  67        -0.00000000
  68         0.00000000
  69         0.00022123
  70         0.00000000
  71        -0.00000000
  72        -0.00000000
  73        -0.00000000
  74         0.00012045
  75        -0.00000000
  76        -0.00000000
  77         0.00000000
  78         0.00000000
  79         0.00001194
  80        -0.00000000
  81         0.00000000
  82         0.00000000
  83        -0.00000000
  84         0.00000000
  85         0.00000000
  86         0.00000000
  87        -0.00000000
  88         0.00000000
  89        -0.00000000
  90         0.00000000
Sym=    13a  
Ene=    -2.2534
Spin= Alpha
Occup=    2.00000
   1         0.00005245
   2        -0.00018651
   3         0.00042514
   4         0.00039604
   5        -0.00085097
   6        -0.00054316
   7         0.00000000