/share/home/srwang/OpenMolcas/build
   This run of MOLCAS is using the pymolcas driver

                             OPE
                             OPE          NMOL  CASOP  ENMOLC A   SO
                 OPE        NMOLC        AS  OP EN  MO LC     AS  OP
                OPENM       OL CA        SO  PE NM  OL CA     SOP EN
                OP EN      MO   LC       AS  OP ENMOL  CASO   PENMOL
                OP  EN     MO   LC       AS  OP EN     MO     LC ASO
               OP   E  NMOL  C  AS       OP  EN MO     LC     AS  OP
               OP  E   NMO   LC AS        OPEN  MO     LCASOP EN   M
               O  PEN   MO  LCA  SO
            OPE   NMO   L   CAS    OP
        OPENMOL  CASOP     ENMOL   CASOPE
     OPENMOLCA   SOPENMOLCASOPEN   MOLCASOPE
    OPENMOLCAS   OP           EN   MOL    CAS
    OPENMOLCAS       OP  ENM        O     LCA
    OPENMOLCAS    OPEN  MOLCASO     P  E  NMO
    OPENMOLCAS     OP               E  N  MOL
    OPENMOLCA   SO           PENM   O  L  CAS    OPEN    MO    LCAS
    OPENMOLCA   SOP           ENM   O  L  CAS   OP  EN  MOLC  AS   O
    OPENMOLCA   SOPE           NM      O  LCA   S      OP  EN MO
    OPENMOLC                AS         O  PEN   M      OL  CA  SOPE
    OPENMO        LCASOPE  NMOL        C  ASO   P      ENMOLC     AS
    OPE     NMO      LCA  SO     P     E   NM   OL  CA SO  PE N   MO
          OPENMOLCA            SOPE   NMO        LCAS  O    P  ENMO
     OPENMOLCASOPENMOLCASOPENMOLCASOPENMOLCA
        OPENMOLCASOPENMOLCASOPENMOLCASOPE
            OPENMOLCASOPENMOLCASOPENM
               OPENMOLCASOPENMOLCA        version: 20.10
                   OPENMOLCASO
                       OPE                tag: 244-geede7d2-dirty

 OpenMolcas is free software; you can redistribute it and/or modify it
 under the terms of the GNU Lesser General Public License version 2.1.
 OpenMolcas is distributed in the hope that it will be useful, but it
 is provided "as is" and without any express or implied warranties.
 For more details see the full text of the license in the file
 LICENSE or in <http://www.gnu.org/licenses/>.

                 Copyright (C) The OpenMolcas Authors
           For the author list and the recommended citation,
                   consult the file CONTRIBUTORS.md

           *************************************************
           * pymolcas version py2.14                       *
           *   build 906445c9b32b4fa97f3a5784787463f7      *
           *   (after the EMIL interpreter by V. Veryazov) *
           *************************************************

configuration info
------------------
Host name: xn01 (Linux)
C Compiler ID: GNU
C flags: -std=gnu99 -fopenmp
Fortran Compiler ID: GNU
Fortran flags: -fno-aggressive-loop-optimizations -cpp -fdefault-integer-8 -fopenmp
Definitions: _MOLCAS_;_I8_;_LINUX_;_MKL_
Parallel: OFF (GA=OFF)


   -----------------------------------------------------------------------------------
  |
  |              Project: Cr2_40_uhf_SUHFNO_CASSCF
  |       Submitted from: /share/home/srwang/automr_inputlibrary/suhf_vs_gvb/Cr2_40_om
  |         Scratch area: /scratch/scr/srwang/molcas/Cr2_40_uhf_SUHFNO_CASSCF
  |      Save outputs to: /share/home/srwang/automr_inputlibrary/suhf_vs_gvb/Cr2_40_om
  |               Molcas: /share/home/srwang/OpenMolcas/build
  |
  | Scratch area is empty
  |
  |       MOLCAS_DRIVER = /share/home/srwang/Modules/bin/pymolcas
  | MOLCAS_KEEP_WORKDIR = YES
  |        MOLCAS_NPROC = 24
  |       MOLCAS_NPROCS = 1
  |       MOLCAS_SOURCE = /share/home/srwang/OpenMolcas
  |    MOLCAS_STRUCTURE = 0
  |
   -----------------------------------------------------------------------------------

++ ---------   Input file   ---------

&GATEWAY
Basis set
Cr...17s11p7d1f.6s4p4d1f.   / inline
     24.   3
   17    6
    2.544778070E+05
    3.813179710E+04
    8.675293060E+03
    2.455009980E+03
    7.991621780E+02
    2.869002150E+02
    1.112541320E+02
    4.386415260E+01
    2.793266920E+02
    8.627473240E+01
    1.355575610E+01
    5.697811280E+00
    8.563658260E+00
    1.398829680E+00
    5.728817110E-01
    9.009617130E-02
    3.412588510E-02
 2.429047760E-04   0.000000000E+00   0.000000000E+00   0.000000000E+00   0.000000000E+00   0.000000000E+00
 1.884352360E-03   0.000000000E+00   0.000000000E+00   0.000000000E+00   0.000000000E+00   0.000000000E+00
 9.800958440E-03   0.000000000E+00   0.000000000E+00   0.000000000E+00   0.000000000E+00   0.000000000E+00
 3.982500870E-02   0.000000000E+00   0.000000000E+00   0.000000000E+00   0.000000000E+00   0.000000000E+00
 1.294054370E-01   0.000000000E+00   0.000000000E+00   0.000000000E+00   0.000000000E+00   0.000000000E+00
 3.062900180E-01   0.000000000E+00   0.000000000E+00   0.000000000E+00   0.000000000E+00   0.000000000E+00
 4.346283500E-01   0.000000000E+00   0.000000000E+00   0.000000000E+00   0.000000000E+00   0.000000000E+00
 2.246956290E-01   0.000000000E+00   0.000000000E+00   0.000000000E+00   0.000000000E+00   0.000000000E+00
 0.000000000E+00  -2.436335790E-02   0.000000000E+00   0.000000000E+00   0.000000000E+00   0.000000000E+00
 0.000000000E+00  -1.151149540E-01   0.000000000E+00   0.000000000E+00   0.000000000E+00   0.000000000E+00
 0.000000000E+00   5.509226630E-01   0.000000000E+00   0.000000000E+00   0.000000000E+00   0.000000000E+00
 0.000000000E+00   5.361135470E-01   0.000000000E+00   0.000000000E+00   0.000000000E+00   0.000000000E+00
 0.000000000E+00   0.000000000E+00  -3.712301770E-01   0.000000000E+00   0.000000000E+00   0.000000000E+00
 0.000000000E+00   0.000000000E+00   1.168116950E+00   0.000000000E+00   0.000000000E+00   0.000000000E+00
 0.000000000E+00   0.000000000E+00   0.000000000E+00   1.000000000E+00   0.000000000E+00   0.000000000E+00
 0.000000000E+00   0.000000000E+00   0.000000000E+00   0.000000000E+00   1.000000000E+00   0.000000000E+00
 0.000000000E+00   0.000000000E+00   0.000000000E+00   0.000000000E+00   0.000000000E+00   1.000000000E+00
   11    4
    1.306439890E+03
    3.092531140E+02
    9.899627400E+01
    3.675691650E+01
    1.456665710E+01
    5.873993740E+00
    2.289099970E+01
    3.085500180E+00
    1.213232910E+00
    4.493168070E-01
    1.206750000E-01
 2.829280070E-03   0.000000000E+00   0.000000000E+00   0.000000000E+00
 2.277662920E-02   0.000000000E+00   0.000000000E+00   0.000000000E+00
 1.056456190E-01   0.000000000E+00   0.000000000E+00   0.000000000E+00
 2.994994490E-01   0.000000000E+00   0.000000000E+00   0.000000000E+00
 4.770624540E-01   0.000000000E+00   0.000000000E+00   0.000000000E+00
 2.765423440E-01   0.000000000E+00   0.000000000E+00   0.000000000E+00
 0.000000000E+00  -1.941210610E-02   0.000000000E+00   0.000000000E+00
 0.000000000E+00   3.861887580E-01   0.000000000E+00   0.000000000E+00
 0.000000000E+00   6.762390890E-01   0.000000000E+00   0.000000000E+00
 0.000000000E+00   0.000000000E+00   1.000000000E+00   0.000000000E+00
 0.000000000E+00   0.000000000E+00   0.000000000E+00   1.000000000E+00
    7    4
    4.372007450E+01
    1.239124270E+01
    4.263944200E+00
    1.552522180E+00
    5.376192950E-01
    1.649317310E-01
    5.100000000E-02
 2.209325930E-02   0.000000000E+00   0.000000000E+00   0.000000000E+00
 1.280143880E-01   0.000000000E+00   0.000000000E+00   0.000000000E+00
 3.865291030E-01   0.000000000E+00   0.000000000E+00   0.000000000E+00
 6.410330140E-01   0.000000000E+00   0.000000000E+00   0.000000000E+00
 0.000000000E+00   1.000000000E+00   0.000000000E+00   0.000000000E+00
 0.000000000E+00   0.000000000E+00   1.000000000E+00   0.000000000E+00
 0.000000000E+00   0.000000000E+00   0.000000000E+00   1.000000000E+00
    1    1
    1.147000000E+00
 1.000000000E+00
Cr1       0.00000000       0.00000000       0.00000000   Angstrom
End of basis set
Basis set
Cr...17s11p7d1f.6s4p4d1f.   / inline
     24.   3
   17    6
    2.544778070E+05
    3.813179710E+04
    8.675293060E+03
    2.455009980E+03
    7.991621780E+02
    2.869002150E+02
    1.112541320E+02
    4.386415260E+01
    2.793266920E+02
    8.627473240E+01
    1.355575610E+01
    5.697811280E+00
    8.563658260E+00
    1.398829680E+00
    5.728817110E-01
    9.009617130E-02
    3.412588510E-02
 2.429047760E-04   0.000000000E+00   0.000000000E+00   0.000000000E+00   0.000000000E+00   0.000000000E+00
 1.884352360E-03   0.000000000E+00   0.000000000E+00   0.000000000E+00   0.000000000E+00   0.000000000E+00
 9.800958440E-03   0.000000000E+00   0.000000000E+00   0.000000000E+00   0.000000000E+00   0.000000000E+00
 3.982500870E-02   0.000000000E+00   0.000000000E+00   0.000000000E+00   0.000000000E+00   0.000000000E+00
 1.294054370E-01   0.000000000E+00   0.000000000E+00   0.000000000E+00   0.000000000E+00   0.000000000E+00
 3.062900180E-01   0.000000000E+00   0.000000000E+00   0.000000000E+00   0.000000000E+00   0.000000000E+00
 4.346283500E-01   0.000000000E+00   0.000000000E+00   0.000000000E+00   0.000000000E+00   0.000000000E+00
 2.246956290E-01   0.000000000E+00   0.000000000E+00   0.000000000E+00   0.000000000E+00   0.000000000E+00
 0.000000000E+00  -2.436335790E-02   0.000000000E+00   0.000000000E+00   0.000000000E+00   0.000000000E+00
 0.000000000E+00  -1.151149540E-01   0.000000000E+00   0.000000000E+00   0.000000000E+00   0.000000000E+00
 0.000000000E+00   5.509226630E-01   0.000000000E+00   0.000000000E+00   0.000000000E+00   0.000000000E+00
 0.000000000E+00   5.361135470E-01   0.000000000E+00   0.000000000E+00   0.000000000E+00   0.000000000E+00
 0.000000000E+00   0.000000000E+00  -3.712301770E-01   0.000000000E+00   0.000000000E+00   0.000000000E+00
 0.000000000E+00   0.000000000E+00   1.168116950E+00   0.000000000E+00   0.000000000E+00   0.000000000E+00
 0.000000000E+00   0.000000000E+00   0.000000000E+00   1.000000000E+00   0.000000000E+00   0.000000000E+00
 0.000000000E+00   0.000000000E+00   0.000000000E+00   0.000000000E+00   1.000000000E+00   0.000000000E+00
 0.000000000E+00   0.000000000E+00   0.000000000E+00   0.000000000E+00   0.000000000E+00   1.000000000E+00
   11    4
    1.306439890E+03
    3.092531140E+02
    9.899627400E+01
    3.675691650E+01
    1.456665710E+01
    5.873993740E+00
    2.289099970E+01
    3.085500180E+00
    1.213232910E+00
    4.493168070E-01
    1.206750000E-01
 2.829280070E-03   0.000000000E+00   0.000000000E+00   0.000000000E+00
 2.277662920E-02   0.000000000E+00   0.000000000E+00   0.000000000E+00
 1.056456190E-01   0.000000000E+00   0.000000000E+00   0.000000000E+00
 2.994994490E-01   0.000000000E+00   0.000000000E+00   0.000000000E+00
 4.770624540E-01   0.000000000E+00   0.000000000E+00   0.000000000E+00
 2.765423440E-01   0.000000000E+00   0.000000000E+00   0.000000000E+00
 0.000000000E+00  -1.941210610E-02   0.000000000E+00   0.000000000E+00
 0.000000000E+00   3.861887580E-01   0.000000000E+00   0.000000000E+00
 0.000000000E+00   6.762390890E-01   0.000000000E+00   0.000000000E+00
 0.000000000E+00   0.000000000E+00   1.000000000E+00   0.000000000E+00
 0.000000000E+00   0.000000000E+00   0.000000000E+00   1.000000000E+00
    7    4
    4.372007450E+01
    1.239124270E+01
    4.263944200E+00
    1.552522180E+00
    5.376192950E-01
    1.649317310E-01
    5.100000000E-02
 2.209325930E-02   0.000000000E+00   0.000000000E+00   0.000000000E+00
 1.280143880E-01   0.000000000E+00   0.000000000E+00   0.000000000E+00
 3.865291030E-01   0.000000000E+00   0.000000000E+00   0.000000000E+00
 6.410330140E-01   0.000000000E+00   0.000000000E+00   0.000000000E+00
 0.000000000E+00   1.000000000E+00   0.000000000E+00   0.000000000E+00
 0.000000000E+00   0.000000000E+00   1.000000000E+00   0.000000000E+00
 0.000000000E+00   0.000000000E+00   0.000000000E+00   1.000000000E+00
    1    1
    1.147000000E+00
 1.000000000E+00
Cr2       0.00000000       0.00000000       4.00000002   Angstrom
End of basis set

&SEWARD

&RASSCF
Spin = 1
Charge = 0
nActEl = 12
RAS2 = 12
CIMX= 200
Tight= 5d-8 5d-6
SDav= 500
FILEORB = Cr2_40_uhf_SUHFNO_CASSCF.INPORB

-- ----------------------------------

--- Start Module: gateway at Mon Jul  5 15:33:53 2021 ---

()()()()()()()()()()()()()()()()()()()()()()()()()()()()()()()()()()()()()()()()()()()()()()()()()()

                                              &GATEWAY

                                   only a single process is used
                       available to each process: 12 GB of memory, 24 threads
                                             pid: 24372
()()()()()()()()()()()()()()()()()()()()()()()()()()()()()()()()()()()()()()()()()()()()()()()()()()


++    Symmetry information:
      ---------------------

                    Character Table for C1 

                             E  
                    a        1  x, y, xy, Rz, z, xz, Ry, yz, Rx, I
--


++    Basis set information:
      ----------------------


      Basis set label: CR...17S11P7D1F.6S4P4D1F........................................................

      Electronic valence basis set:
      ------------------
      Associated Effective Charge  24.000000 au
      Associated Actual Charge     24.000000 au
      Nuclear Model: Point charge

      Shell  nPrim  nBasis  Cartesian Spherical Contaminant
         s      17       6        X                  
         p      11       4        X                  
         d       7       4                 X         
         f       1       1                 X         


      Basis set label: CR...17S11P7D1F.6S4P4D1F........................................................

      Electronic valence basis set:
      ------------------
      Associated Effective Charge  24.000000 au
      Associated Actual Charge     24.000000 au
      Nuclear Model: Point charge

      Shell  nPrim  nBasis  Cartesian Spherical Contaminant
         s      17       6        X                  
         p      11       4        X                  
         d       7       4                 X         
         f       1       1                 X         
--


++    Molecular structure info:
      -------------------------

                    ************************************************ 
                    **** Cartesian Coordinates / Bohr, Angstrom **** 
                    ************************************************ 

     Center  Label                x              y              z                     x              y              z
        1      CR1              0.000000       0.000000       0.000000              0.000000       0.000000       0.000000
        2      CR2              0.000000       0.000000       7.558905              0.000000       0.000000       4.000000
--


            Nuclear Potential Energy             76.20151799 au

--- Stop Module: gateway at Mon Jul  5 15:33:53 2021 /rc=_RC_ALL_IS_WELL_ ---
*** files: xmldump
    saved to directory /share/home/srwang/automr_inputlibrary/suhf_vs_gvb/Cr2_40_om

--- Start Module: seward at Mon Jul  5 15:33:53 2021 ---

()()()()()()()()()()()()()()()()()()()()()()()()()()()()()()()()()()()()()()()()()()()()()()()()()()

                                              &SEWARD

                                   only a single process is used
                       available to each process: 12 GB of memory, 24 threads
                                             pid: 24375
()()()()()()()()()()()()()()()()()()()()()()()()()()()()()()()()()()()()()()()()()()()()()()()()()()

               SEWARD will generate:
                  Multipole Moment integrals up to order  2
                  Kinetic Energy integrals
                  Nuclear Attraction integrals (point charge)
                  One-Electron Hamiltonian integrals
                  Velocity integrals
                  Orbital angular momentum around ( 0.0000  0.0000  3.7795 )
                  Velocity quadrupole around ( 0.0000  0.0000  3.7795 )
                  Two-Electron Repulsion integrals

                   Integrals are discarded if absolute value <: 0.10E-13
                   Integral cutoff threshold is set to       <: 0.10E-15

            Nuclear Potential Energy             76.20151799 au


      Basis set specifications :
      Symmetry species         a  
      Basis functions           90


  Input file to MOLDEN was generated!

--- Stop Module: seward at Mon Jul  5 15:33:56 2021 /rc=_RC_ALL_IS_WELL_ ---
*** files: Cr2_40_uhf_SUHFNO_CASSCF.GssOrb Cr2_40_uhf_SUHFNO_CASSCF.guessorb.h5 Cr2_40_uhf_SUHFNO_CASSCF.guessorb.molden xmldump
    saved to directory /share/home/srwang/automr_inputlibrary/suhf_vs_gvb/Cr2_40_om
--- Module seward spent 3 seconds ---

*** symbolic link created: INPORB -> Cr2_40_uhf_SUHFNO_CASSCF.GssOrb
--- Start Module: rasscf at Mon Jul  5 15:33:56 2021 ---

()()()()()()()()()()()()()()()()()()()()()()()()()()()()()()()()()()()()()()()()()()()()()()()()()()

                                              &RASSCF

                                   only a single process is used
                       available to each process: 12 GB of memory, 24 threads
                                             pid: 30020
()()()()()()()()()()()()()()()()()()()()()()()()()()()()()()()()()()()()()()()()()()()()()()()()()()


      Header of the ONEINT file:
      --------------------------
      
      Integrals generated by Gateway/Seward, Mon Jul  5 15:33:53 2021


      OrdInt status: non-squared


      Cartesian coordinates in Angstrom:
      -----------------------------------------------------
      No.  Label        X            Y            Z        
      -----------------------------------------------------
       1   CR1        0.00000000   0.00000000   0.00000000
       2   CR2        0.00000000   0.00000000   4.00000002
      -----------------------------------------------------
      Nuclear repulsion energy =   76.20151799

++    Wave function specifications:
      -----------------------------

      Number of closed shell electrons          36
      Number of electrons in active shells      12
      Max number of holes in RAS1 space          0
      Max nr of electrons in RAS3 space          0
      Number of inactive orbitals               18
      Number of active orbitals                 12
      Number of secondary orbitals              60
      Spin quantum number                      0.0
      State symmetry                             1
--

++    Orbital specifications:
      -----------------------

      Symmetry species                           1
                                                 a
      Frozen orbitals                            0
      Inactive orbitals                         18
      Active orbitals                           12
      RAS1 orbitals                              0
      RAS2 orbitals                             12
      RAS3 orbitals                              0
      Secondary orbitals                        60
      Deleted orbitals                           0
      Number of basis functions                 90
--

++    CI expansion specifications:
      ----------------------------

      Number of CSFs                        226512
      Number of determinants                427350
      Number of root(s) required                 1
      Root chosen for geometry opt.              1
      CI root used                               1
         
      highest root included in the CI            1
      max. size of the explicit Hamiltonian    500
--

++    Optimization specifications:
      ----------------------------

      RASSCF algorithm: Conventional
      Maximum number of macro iterations       200
      Maximum number of SX iterations          100
      Threshold for RASSCF energy            0.100E-07
      Threshold for max MO rotation          0.100E+00
      Threshold for max BLB element          0.100E-03
      Level shift parameter                  0.500E+00
      Make Quasi-Newton update
--

      The MO-coefficients are taken from the file:
      /share/home/srwang/automr_inputlibrary/suhf_vs_gvb/Cr2_40_om/Cr2_40_uhf_SUHFNO_CASSCF.INPORB                                    
      Title: SCF orbitals                                                                  

      Total molecular charge    0.00

      ************************************************************************************************************************
      *                                                                                                                      *
      *                                            Wave function control section                                             *
      *                                                                                                                      *
      ************************************************************************************************************************


                                         RASSCF iterations: Energy and convergence statistics
                                         ----------------------------------------------------

      Iter CI   SX   CI       RASSCF       Energy    max ROT     max BLB   max BLB  Level Ln srch  Step   QN   Walltime
          iter iter root      energy       change     param      element    value   shift minimum  type update hh:mm:ss
 Nr of preliminary CI iterations:  72
      Total energies have been shifted. Add                -2000.00 au
        1   1   16    1   -86.67117016    0.00E+00  -0.96E-03   13  31 1  0.98E-03*  0.24   0.00    SX    NO    0:01:17
        2   6   13    1   -86.67117336   -0.32E-05*  0.40E-03   13  31 1  0.17E-03*  0.24   0.00    SX    NO    0:00:15
        3   9   12    1   -86.67117377   -0.40E-06*  0.22E-03   30  42 1  0.84E-04   0.24   0.00    SX    NO    0:00:17
        4  12   11    1   -86.67117388   -0.11E-06*  0.13E-03   30  42 1  0.49E-04   0.24   0.00    SX    NO    0:00:19
        5   2   10    1   -86.67117391   -0.35E-07*  0.15E-03   19  39 1  0.29E-04   0.24   2.15    LS   YES    0:00:12
        6   7   10    1   -86.67117393   -0.21E-07* -0.82E-04   19  39 1  0.23E-04   0.24   1.20    QN   YES    0:00:16
        7   1   10    1   -86.67117394   -0.57E-08   0.28E-04   19  43 1 -0.13E-04   0.24   0.98    QN   YES    0:00:11
      Convergence after  7 iterations
        8   1   10    1   -86.67117394   -0.21E-08   0.28E-04   30  47 1 -0.37E-05   0.24   0.98    QN   YES    0:00:12

      ************************************************************************************************************************
                                                      Wave function printout:
                       occupation of active orbitals, and spin coupling of open shells (u,d: Spin up or down)
      ************************************************************************************************************************

      Note: transformation to natural orbitals
      has been made, which may change the order of the CSFs.

      printout of CI-coefficients larger than  0.05 for root  1
      energy=   -2086.671174
      conf/sym  111111111111     Coeff  Weight
             1  222222000000   0.05759 0.00332
            38  222220200000  -0.05735 0.00329
            60  2222udud0000  -0.05735 0.00329
            83  222u2du0d000   0.05675 0.00322
           107  22u22du00d00  -0.05675 0.00322
           132  2u222du000d0   0.05670 0.00321
           166  222202020000  -0.05735 0.00329
           189  222ud20ud000   0.05675 0.00322
           213  22u2d20u0d00  -0.05675 0.00322
           238  2u22d20u00d0   0.05670 0.00321
           274  222022002000  -0.05617 0.00316
           298  22ud2200ud00   0.05617 0.00315
           323  2u2d2200u0d0  -0.05612 0.00315
           362  220222000200  -0.05617 0.00316
           387  2ud222000ud0   0.05612 0.00315
           430  202222000020  -0.05607 0.00314
          5604  222200220000   0.05710 0.00326
          5710  222ud02ud000  -0.05651 0.00319
          5820  22u2d02u0d00   0.05651 0.00319
          5939  2u22d02u00d0  -0.05646 0.00319
          6132  222020202000   0.05593 0.00313
          6242  22ud2020ud00  -0.05593 0.00313
          6361  2u2d2020u0d0   0.05588 0.00312
          6563  220220200200   0.05593 0.00313
          6682  2ud220200ud0  -0.05588 0.00312
          6904  202220200020   0.05583 0.00312
          7181  222u0du2d000  -0.05651 0.00319
          7291  22u20du20d00   0.05651 0.00319
          7410  2u220du200d0  -0.05646 0.00319
          7603  2220udud2000   0.05593 0.00313
          7713  22udududud00  -0.05593 0.00313
          7832  2u2dududu0d0   0.05588 0.00312
          8034  2202udud0200   0.05593 0.00313
          8153  2ud2udud0ud0  -0.05588 0.00312
          8375  2022udud0020   0.05584 0.00312
          8660  22uudduudd00  -0.05592 0.00313
          8779  2u2udduud0d0   0.05587 0.00312
          8998  2uu2dduu0dd0  -0.05587 0.00312
          9291  22u02du02d00   0.05536 0.00306
          9410  2u202du020d0  -0.05531 0.00306
          9611  220u2du0d200  -0.05536 0.00306
          9730  2udu2du0dud0   0.05531 0.00306
          9952  202u2du0d020  -0.05526 0.00305
         10259  2uud2du0udd0   0.05531 0.00306
         10576  2u022du002d0  -0.05531 0.00306
         10795  20u22du00d20   0.05526 0.00305
         11384  222002022000   0.05593 0.00313
         11494  22ud0202ud00  -0.05593 0.00313
         11613  2u2d0202u0d0   0.05588 0.00312
         11815  220202020200   0.05593 0.00313
         11934  2ud202020ud0  -0.05588 0.00312
         12156  202202020020   0.05584 0.00312
         12442  22u0d20u2d00   0.05536 0.00306
         12561  2u20d20u20d0  -0.05531 0.00306
         12762  220ud20ud200  -0.05536 0.00306
         12881  2udud20udud0   0.05531 0.00306
         13103  202ud20ud020  -0.05526 0.00305
         13410  2uudd20uudd0   0.05531 0.00306
         13727  2u02d20u02d0  -0.05531 0.00306
         13946  20u2d20u0d20   0.05526 0.00305
         14548  220022002200   0.05480 0.00300
         14667  2ud022002ud0  -0.05475 0.00300
         14889  202022002020   0.05471 0.00299
         15198  2u0d2200u2d0   0.05475 0.00300
         15417  20ud2200ud20  -0.05471 0.00299
         16048  200222000220   0.05471 0.00299
         72154  222000222000  -0.05569 0.00310
         72330  22ud0022ud00   0.05569 0.00310
         72514  2u2d0022u0d0  -0.05564 0.00310
         72858  220200220200  -0.05569 0.00310
         73042  2ud200220ud0   0.05564 0.00310
         73409  202200220020  -0.05560 0.00309
         73906  22u0d02u2d00  -0.05512 0.00304
         74090  2u20d02u20d0   0.05508 0.00303
         74434  220ud02ud200   0.05512 0.00304
         74618  2udud02udud0  -0.05507 0.00303
         74985  202ud02ud020   0.05503 0.00303
         75498  2uudd02uudd0  -0.05507 0.00303
         76026  2u02d02u02d0   0.05508 0.00303
         76390  20u2d02u0d20  -0.05503 0.00303
         77411  220020202200  -0.05457 0.00298
         77595  2ud020202ud0   0.05452 0.00297
         77962  202020202020  -0.05448 0.00297
         78478  2u0d2020u2d0  -0.05452 0.00297
         78842  20ud2020ud20   0.05448 0.00297
         79898  200220200220  -0.05448 0.00297
         80907  22u00du22d00  -0.05512 0.00304
         81091  2u200du220d0   0.05508 0.00303
         81435  220u0du2d200   0.05512 0.00304
         81619  2udu0du2dud0  -0.05507 0.00303
         81986  202u0du2d020   0.05503 0.00303
         82499  2uud0du2udd0  -0.05507 0.00303
         83027  2u020du202d0   0.05508 0.00303
         83391  20u20du20d20  -0.05503 0.00303
         84412  2200udud2200  -0.05457 0.00298
         84596  2ud0udud2ud0   0.05452 0.00297
         84963  2020udud2020  -0.05448 0.00297
         85479  2u0dududu2d0  -0.05452 0.00297
         85843  20udududud20   0.05448 0.00297
         86899  2002udud0220  -0.05448 0.00297
         87925  2uu0dduu2dd0   0.05451 0.00297
         88456  2u0udduud2d0  -0.05451 0.00297
         88820  20uudduudd20   0.05447 0.00297
         90557  2u002du022d0   0.05397 0.00291
         90921  20u02du02d20  -0.05393 0.00291
         91976  200u2du0d220   0.05393 0.00291
         94038  220002022200  -0.05457 0.00298
         94222  2ud002022ud0   0.05452 0.00297
         94589  202002022020  -0.05448 0.00297
         95105  2u0d0202u2d0  -0.05452 0.00297
         95469  20ud0202ud20   0.05448 0.00297
         96525  200202020220  -0.05448 0.00297
         97558  2u00d20u22d0   0.05397 0.00291
         97922  20u0d20u2d20  -0.05393 0.00291
         98977  200ud20ud220   0.05393 0.00291
        101078  200022002220  -0.05339 0.00285
        189881  220000222200   0.05434 0.00295
        189987  2ud000222ud0  -0.05429 0.00295
        190201  202000222020   0.05425 0.00294
        190513  2u0d0022u2d0   0.05429 0.00295
        190727  20ud0022ud20  -0.05425 0.00294
        191360  200200220220   0.05425 0.00294
        191984  2u00d02u22d0  -0.05375 0.00289
        192198  20u0d02u2d20   0.05370 0.00288
        192831  200ud02ud220  -0.05370 0.00288
        194093  200020202220   0.05317 0.00283
        195135  2u000du222d0  -0.05375 0.00289
        195349  20u00du22d20   0.05370 0.00288
        195982  200u0du2d220  -0.05370 0.00288
        197244  2000udud2220   0.05317 0.00283
        199345  200002022220   0.05317 0.00283
        225148  200000222220  -0.05295 0.00280

      Natural orbitals and occupation numbers for root  1
      sym 1:   1.379031   1.014945   1.014321   1.014321   1.002439   1.002439   0.997561   0.997561   0.985679   0.985679
               0.985091   0.620932

      ************************************************************************************************************************
      *                                                                                                                      *
      *                                                    Final results                                                     *
      *                                                                                                                      *
      ************************************************************************************************************************


++    Wave function specifications:
      -----------------------------

      Number of closed shell electrons          36
      Number of electrons in active shells      12
      Max number of holes in RAS1 space          0
      Max nr of electrons in RAS3 space          0
      Number of inactive orbitals               18
      Number of active orbitals                 12
      Number of secondary orbitals              60
      Spin quantum number                      0.0
      State symmetry                             1
--

++    Orbital specifications:
      -----------------------

      Symmetry species                           1
                                                 a
      Frozen orbitals                            0
      Inactive orbitals                         18
      Active orbitals                           12
      RAS1 orbitals                              0
      RAS2 orbitals                             12
      RAS3 orbitals                              0
      Secondary orbitals                        60
      Deleted orbitals                           0
      Number of basis functions                 90
--

++    CI expansion specifications:
      ----------------------------

      Number of CSFs                        226512
      Number of determinants                427350
      Number of root(s) required                 1
      CI root used                               1
      highest root included in the CI            1
      Root passed to geometry opt.               1
--

++    Final optimization conditions:
      ------------------------------

      Average CI energy                           -2086.67117394
      RASSCF energy for state  1                  -2086.67117394
      Super-CI energy                                -0.00000000
      RASSCF energy change                            0.00000000
      Max change in MO coefficients               0.404E-04
      Max non-diagonal density matrix element     0.277E-04
      Maximum BLB matrix element                 -0.372E-05
      (orbital pair  30,  47 in symmetry   1)
      Norm of electronic gradient            0.126E-04
--


      Final state energy(ies):
      ------------------------

::    RASSCF root number  1 Total energy:  -2086.67117394

++    Molecular orbitals:
      -------------------

      Pseudonatural active orbitals and approximate occupation numbers




      Molecular orbitals for symmetry species 1: a  


      Orbital                 1         2         3         4         5         6         7         8         9        10
      Energy          -220.3858 -220.3858  -26.2099  -26.2099  -22.1400  -22.1400  -22.1400  -22.1400  -22.1399  -22.1399
      Occ. No.           2.0000    2.0000    2.0000    2.0000    2.0000    2.0000    2.0000    2.0000    2.0000    2.0000

     1 CR1    1s        -0.6844    0.7262   -0.2199    0.2213    0.0000    0.0000    0.0000    0.0000   -0.0000    0.0000
     2 CR1    1s        -0.0048    0.0051    0.7310   -0.7355    0.0000   -0.0000   -0.0000   -0.0000    0.0001   -0.0001
     3 CR1    1s         0.0016   -0.0016    0.0234   -0.0235    0.0000   -0.0000   -0.0000   -0.0000    0.0000    0.0000
     4 CR1    1s        -0.0010    0.0011   -0.0061    0.0061   -0.0000   -0.0000    0.0000    0.0000   -0.0001   -0.0001
     5 CR1    1s         0.0003   -0.0003    0.0016   -0.0017   -0.0000    0.0000   -0.0000    0.0000   -0.0001    0.0001
     6 CR1    1s        -0.0002    0.0002   -0.0007    0.0006    0.0000   -0.0000   -0.0000   -0.0000    0.0005    0.0000
     7 CR1    2px        0.0000   -0.0000   -0.0000    0.0000   -0.5415    0.4381   -0.5476    0.4466    0.0000   -0.0000
     8 CR1    2px       -0.0000    0.0000   -0.0000    0.0000   -0.0118    0.0096   -0.0119    0.0097    0.0000   -0.0000
     9 CR1    2px        0.0000   -0.0000    0.0000   -0.0000    0.0024   -0.0019    0.0023   -0.0019   -0.0000    0.0000
    10 CR1    2px       -0.0000    0.0000   -0.0000    0.0000   -0.0007    0.0006   -0.0006    0.0005    0.0000   -0.0000
    11 CR1    2py        0.0000   -0.0000   -0.0000    0.0000   -0.4381   -0.5415   -0.4466   -0.5475   -0.0000    0.0000
    12 CR1    2py        0.0000   -0.0000    0.0000   -0.0000   -0.0096   -0.0118   -0.0097   -0.0119   -0.0000    0.0000
    13 CR1    2py       -0.0000    0.0000   -0.0000    0.0000    0.0019    0.0024    0.0019    0.0023    0.0000   -0.0000
    14 CR1    2py        0.0000   -0.0000   -0.0000    0.0000   -0.0006   -0.0007   -0.0005   -0.0006    0.0000    0.0000
    15 CR1    2pz       -0.0000   -0.0000   -0.0001    0.0001    0.0000   -0.0000    0.0000   -0.0000    0.7005   -0.7027
    16 CR1    2pz        0.0000    0.0000    0.0000    0.0000    0.0000   -0.0000    0.0000   -0.0000    0.0154   -0.0153
    17 CR1    2pz       -0.0000   -0.0000   -0.0001   -0.0000   -0.0000    0.0000   -0.0000    0.0000   -0.0033    0.0030
    18 CR1    2pz        0.0000   -0.0000    0.0001   -0.0000    0.0000   -0.0000   -0.0000   -0.0000    0.0013   -0.0007
    19 CR1    3d2-       0.0000    0.0000    0.0000    0.0000    0.0000    0.0000   -0.0000    0.0000   -0.0000   -0.0000
    20 CR1    3d2-      -0.0000    0.0000   -0.0000    0.0000   -0.0000    0.0000    0.0000   -0.0000    0.0000    0.0000
    21 CR1    3d2-       0.0000   -0.0000    0.0000    0.0000    0.0000   -0.0000   -0.0000    0.0000   -0.0000   -0.0000
    22 CR1    3d2-      -0.0000    0.0000   -0.0000    0.0000   -0.0000    0.0000    0.0000    0.0000    0.0000    0.0000
    23 CR1    3d1-       0.0000    0.0000    0.0000    0.0000    0.0000    0.0000    0.0000    0.0000    0.0000   -0.0000
    24 CR1    3d1-      -0.0000   -0.0000    0.0000   -0.0000   -0.0000   -0.0000    0.0000    0.0000   -0.0000    0.0000
    25 CR1    3d1-      -0.0000    0.0000   -0.0000    0.0000    0.0000    0.0001   -0.0000   -0.0000   -0.0000   -0.0000
    26 CR1    3d1-      -0.0000    0.0000   -0.0000   -0.0000   -0.0001   -0.0002    0.0000    0.0001    0.0000    0.0000
    27 CR1    3d0        0.0000    0.0000    0.0000   -0.0000    0.0000    0.0000   -0.0000   -0.0000    0.0000    0.0000
    28 CR1    3d0       -0.0000   -0.0000   -0.0000   -0.0000   -0.0000   -0.0000    0.0000    0.0000   -0.0001   -0.0000
    29 CR1    3d0        0.0000   -0.0000    0.0001   -0.0000    0.0000    0.0000   -0.0000   -0.0000    0.0001    0.0001
    30 CR1    3d0        0.0000    0.0000    0.0001    0.0001    0.0000   -0.0000   -0.0000   -0.0000    0.0002   -0.0001
    31 CR1    3d1+      -0.0000   -0.0000   -0.0000    0.0000    0.0000   -0.0000    0.0000   -0.0000    0.0000    0.0000
    32 CR1    3d1+       0.0000    0.0000    0.0000    0.0000   -0.0000    0.0000    0.0000   -0.0000   -0.0000    0.0000
    33 CR1    3d1+       0.0000   -0.0000   -0.0000   -0.0000    0.0001   -0.0000   -0.0000    0.0000   -0.0000   -0.0000
    34 CR1    3d1+      -0.0000    0.0000   -0.0000    0.0000   -0.0002    0.0001    0.0001   -0.0000    0.0000    0.0000
    35 CR1    3d2+      -0.0000   -0.0000   -0.0000    0.0000    0.0000    0.0000    0.0000    0.0000    0.0000    0.0000
    36 CR1    3d2+       0.0000    0.0000    0.0000   -0.0000   -0.0000   -0.0000   -0.0000   -0.0000   -0.0000    0.0000
    37 CR1    3d2+       0.0000   -0.0000    0.0000   -0.0000    0.0000    0.0000   -0.0000    0.0000   -0.0000    0.0000
    38 CR1    3d2+      -0.0000    0.0000   -0.0000   -0.0000   -0.0000    0.0000    0.0000    0.0000    0.0000    0.0000
    39 CR1    4f3-      -0.0000   -0.0000    0.0000   -0.0000   -0.0000    0.0000    0.0000   -0.0000    0.0000    0.0000
    40 CR1    4f2-       0.0000   -0.0000    0.0000   -0.0000    0.0000   -0.0000    0.0000    0.0000   -0.0000   -0.0000
    41 CR1    4f1-       0.0000   -0.0000    0.0000    0.0000   -0.0000   -0.0000    0.0000    0.0000   -0.0000    0.0000
    42 CR1    4f0        0.0000    0.0000    0.0000    0.0000    0.0000    0.0000    0.0000    0.0000    0.0000    0.0000
    43 CR1    4f1+      -0.0000    0.0000   -0.0000   -0.0000   -0.0000    0.0000    0.0000   -0.0000    0.0000   -0.0000
    44 CR1    4f2+      -0.0000   -0.0000   -0.0000   -0.0000   -0.0000   -0.0000   -0.0000    0.0000    0.0000   -0.0000
    45 CR1    4f3+      -0.0000   -0.0000   -0.0000   -0.0000   -0.0000    0.0000   -0.0000   -0.0000    0.0000   -0.0000
    46 CR2    1s         0.7262    0.6844    0.2213    0.2199    0.0000    0.0000   -0.0000   -0.0000    0.0000    0.0000
    47 CR2    1s         0.0051    0.0048   -0.7355   -0.7310   -0.0000   -0.0000    0.0000    0.0000   -0.0001   -0.0001
    48 CR2    1s        -0.0017   -0.0016   -0.0235   -0.0233   -0.0000   -0.0000   -0.0000    0.0000   -0.0000    0.0000
    49 CR2    1s         0.0011    0.0010    0.0061    0.0061    0.0000   -0.0000    0.0000   -0.0000    0.0001   -0.0001
    50 CR2    1s        -0.0003   -0.0003   -0.0016   -0.0017    0.0000    0.0000   -0.0000   -0.0000    0.0001    0.0001
    51 CR2    1s         0.0002    0.0001    0.0007    0.0006   -0.0000    0.0000    0.0000    0.0000   -0.0005    0.0000
    52 CR2    2px       -0.0000   -0.0000    0.0000    0.0000    0.5493   -0.4444   -0.5397    0.4403   -0.0000   -0.0000
    53 CR2    2px       -0.0000   -0.0000   -0.0000   -0.0000    0.0120   -0.0097   -0.0118    0.0096   -0.0000   -0.0000
    54 CR2    2px        0.0000    0.0000    0.0000    0.0000   -0.0024    0.0019    0.0023   -0.0019    0.0000    0.0000
    55 CR2    2px       -0.0000   -0.0000    0.0000   -0.0000    0.0007   -0.0006   -0.0006    0.0005   -0.0000   -0.0000
    56 CR2    2py        0.0000    0.0000   -0.0000   -0.0000    0.4444    0.5493   -0.4403   -0.5398   -0.0000   -0.0000
    57 CR2    2py       -0.0000   -0.0000   -0.0000   -0.0000    0.0097    0.0120   -0.0096   -0.0118   -0.0000   -0.0000
    58 CR2    2py       -0.0000   -0.0000   -0.0000   -0.0000   -0.0019   -0.0024    0.0019    0.0023    0.0000    0.0000
    59 CR2    2py       -0.0000   -0.0000    0.0000   -0.0000    0.0006    0.0007   -0.0005   -0.0006   -0.0000   -0.0000
    60 CR2    2pz       -0.0000    0.0000   -0.0001   -0.0001    0.0000    0.0000   -0.0000   -0.0000    0.7027    0.7005
    61 CR2    2pz        0.0000   -0.0000    0.0000   -0.0000    0.0000    0.0000   -0.0000   -0.0000    0.0154    0.0152
    62 CR2    2pz       -0.0000    0.0000   -0.0001    0.0000   -0.0000   -0.0000    0.0000    0.0000   -0.0033   -0.0030
    63 CR2    2pz        0.0000   -0.0000    0.0001    0.0000    0.0000    0.0000   -0.0000   -0.0000    0.0013    0.0007
    64 CR2    3d2-       0.0000    0.0000    0.0000   -0.0000    0.0000   -0.0000   -0.0000   -0.0000   -0.0000    0.0000
    65 CR2    3d2-      -0.0000   -0.0000   -0.0000   -0.0000    0.0000    0.0000    0.0000    0.0000    0.0000   -0.0000
    66 CR2    3d2-       0.0000    0.0000    0.0000   -0.0000    0.0000   -0.0000   -0.0000    0.0000   -0.0000   -0.0000
    67 CR2    3d2-      -0.0000    0.0000   -0.0000    0.0000   -0.0000    0.0000    0.0000   -0.0000    0.0000    0.0000
    68 CR2    3d1-       0.0000    0.0000    0.0000   -0.0000    0.0000    0.0000   -0.0000   -0.0000   -0.0000   -0.0000
    69 CR2    3d1-      -0.0000   -0.0000   -0.0000    0.0000   -0.0000   -0.0000   -0.0000   -0.0000    0.0000    0.0000
    70 CR2    3d1-       0.0000    0.0000    0.0000   -0.0000    0.0000    0.0001    0.0000    0.0000   -0.0000   -0.0000
    71 CR2    3d1-      -0.0000   -0.0000   -0.0000    0.0000   -0.0001   -0.0002   -0.0000   -0.0001    0.0000    0.0000
    72 CR2    3d0       -0.0000    0.0000   -0.0000   -0.0000    0.0000    0.0000    0.0000   -0.0000   -0.0000    0.0000
    73 CR2    3d0        0.0000   -0.0000    0.0000   -0.0000    0.0000   -0.0000   -0.0000   -0.0000    0.0001   -0.0000
    74 CR2    3d0       -0.0000   -0.0000   -0.0001   -0.0000   -0.0000    0.0000   -0.0000    0.0000   -0.0001    0.0001
    75 CR2    3d0       -0.0000    0.0000   -0.0001    0.0001   -0.0000    0.0000    0.0000    0.0000   -0.0002   -0.0001
    76 CR2    3d1+       0.0000   -0.0000    0.0000    0.0000    0.0000   -0.0000   -0.0000    0.0000    0.0000    0.0000
    77 CR2    3d1+      -0.0000   -0.0000   -0.0000   -0.0000   -0.0000    0.0000   -0.0000    0.0000   -0.0000   -0.0000
    78 CR2    3d1+      -0.0000    0.0000   -0.0000    0.0000    0.0001   -0.0000    0.0000   -0.0000   -0.0000    0.0000
    79 CR2    3d1+       0.0000   -0.0000    0.0000    0.0000   -0.0002    0.0001   -0.0001    0.0000    0.0000   -0.0000
    80 CR2    3d2+      -0.0000   -0.0000   -0.0000   -0.0000    0.0000   -0.0000   -0.0000    0.0000    0.0000   -0.0000
    81 CR2    3d2+      -0.0000    0.0000   -0.0000    0.0000    0.0000    0.0000   -0.0000   -0.0000    0.0000    0.0000
    82 CR2    3d2+       0.0000   -0.0000    0.0000   -0.0000   -0.0000   -0.0000    0.0000    0.0000   -0.0000   -0.0000
    83 CR2    3d2+       0.0000    0.0000    0.0000   -0.0000    0.0000   -0.0000   -0.0000    0.0000   -0.0000    0.0000
    84 CR2    4f3-       0.0000    0.0000    0.0000   -0.0000    0.0000   -0.0000   -0.0000    0.0000   -0.0000    0.0000
    85 CR2    4f2-      -0.0000    0.0000   -0.0000   -0.0000    0.0000    0.0000   -0.0000    0.0000    0.0000    0.0000
    86 CR2    4f1-       0.0000    0.0000    0.0000    0.0000    0.0000    0.0000    0.0000    0.0000    0.0000    0.0000
    87 CR2    4f0        0.0000   -0.0000    0.0000   -0.0000    0.0000   -0.0000    0.0000   -0.0000    0.0000   -0.0000
    88 CR2    4f1+      -0.0000    0.0000   -0.0000    0.0000    0.0000   -0.0000    0.0000   -0.0000    0.0000   -0.0000
    89 CR2    4f2+      -0.0000   -0.0000   -0.0000    0.0000    0.0000   -0.0000    0.0000    0.0000    0.0000    0.0000
    90 CR2    4f3+      -0.0000   -0.0000   -0.0000    0.0000    0.0000    0.0000   -0.0000    0.0000    0.0000   -0.0000


      Orbital                11        12        13        14        15        16        17        18        19        20
      Energy            -3.2854   -3.2854   -2.0514   -2.0513   -2.0513   -2.0513   -2.0513   -2.0512    0.0000    0.0000
      Occ. No.           2.0000    2.0000    2.0000    2.0000    2.0000    2.0000    2.0000    2.0000    1.3790    1.0149

     1 CR1    1s        -0.0790    0.0793   -0.0001    0.0000   -0.0000    0.0000   -0.0000    0.0001   -0.0161    0.0029
     2 CR1    1s         0.3133   -0.3142    0.0002   -0.0000    0.0000   -0.0000    0.0000   -0.0004    0.0556   -0.0100
     3 CR1    1s        -0.4478    0.4493   -0.0008    0.0000   -0.0000    0.0000   -0.0000    0.0009   -0.1242    0.0231
     4 CR1    1s        -0.3310    0.3318    0.0003   -0.0000    0.0000   -0.0000   -0.0000    0.0002   -0.1701    0.0303
     5 CR1    1s        -0.0104    0.0105   -0.0001    0.0000   -0.0000   -0.0000    0.0000   -0.0003    0.3532   -0.0670
     6 CR1    1s         0.0034   -0.0037   -0.0005    0.0000   -0.0000   -0.0000    0.0000   -0.0010    0.3490   -0.0681
     7 CR1    2px       -0.0000    0.0000   -0.0000   -0.1891    0.1725    0.1950   -0.1659   -0.0000    0.0000    0.0000
     8 CR1    2px        0.0000   -0.0000    0.0000    0.4517   -0.4120   -0.4658    0.3964    0.0000   -0.0000   -0.0000
     9 CR1    2px        0.0000    0.0000    0.0000    0.1390   -0.1268   -0.1434    0.1221    0.0000    0.0000    0.0000
    10 CR1    2px       -0.0000   -0.0000    0.0000    0.0037   -0.0034   -0.0036    0.0031    0.0000    0.0000    0.0000
    11 CR1    2py       -0.0000    0.0000    0.0000   -0.1725   -0.1891    0.1659    0.1950    0.0000   -0.0000    0.0000
    12 CR1    2py        0.0000   -0.0000   -0.0000    0.4120    0.4517   -0.3964   -0.4658   -0.0000    0.0000   -0.0000
    13 CR1    2py        0.0000   -0.0000   -0.0000    0.1268    0.1390   -0.1221   -0.1434   -0.0000    0.0000    0.0000
    14 CR1    2py        0.0000    0.0000   -0.0000    0.0034    0.0037   -0.0031   -0.0036   -0.0000   -0.0000    0.0000
    15 CR1    2pz       -0.0002    0.0002    0.2560   -0.0000    0.0000   -0.0000    0.0000   -0.2560    0.0049    0.0001
    16 CR1    2pz        0.0005   -0.0004   -0.6115    0.0000   -0.0000    0.0000   -0.0000    0.6115   -0.0131   -0.0004
    17 CR1    2pz        0.0003   -0.0006   -0.1879    0.0000   -0.0000    0.0000   -0.0000    0.1887   -0.0060    0.0001
    18 CR1    2pz        0.0000    0.0004   -0.0053    0.0000   -0.0000    0.0000    0.0000    0.0039    0.0167    0.0005
    19 CR1    3d2-       0.0000   -0.0000    0.0000    0.0000   -0.0000   -0.0000    0.0000   -0.0000   -0.0000   -0.0000
    20 CR1    3d2-       0.0000   -0.0000   -0.0000    0.0000   -0.0000   -0.0000    0.0000   -0.0000   -0.0000   -0.0000
    21 CR1    3d2-       0.0000    0.0000   -0.0000    0.0000    0.0000   -0.0000    0.0000    0.0000   -0.0000   -0.0000
    22 CR1    3d2-      -0.0000   -0.0000    0.0000   -0.0000    0.0000   -0.0000   -0.0000    0.0000    0.0000   -0.0000
    23 CR1    3d1-       0.0000   -0.0000   -0.0000   -0.0002   -0.0002    0.0002    0.0002    0.0000    0.0000   -0.0000
    24 CR1    3d1-       0.0000   -0.0000   -0.0000   -0.0002   -0.0002    0.0002    0.0003    0.0000    0.0000   -0.0000
    25 CR1    3d1-      -0.0000    0.0000   -0.0000   -0.0001   -0.0001   -0.0001   -0.0001    0.0000    0.0000   -0.0000
    26 CR1    3d1-      -0.0000    0.0000    0.0000    0.0001    0.0001    0.0003    0.0003    0.0000    0.0000   -0.0000
    27 CR1    3d0       -0.0000    0.0000    0.0003   -0.0000    0.0000    0.0000    0.0000   -0.0004    0.0654    0.4269
    28 CR1    3d0        0.0000   -0.0001    0.0004   -0.0000    0.0000    0.0000   -0.0000   -0.0002    0.0439    0.2864
    29 CR1    3d0       -0.0000    0.0003   -0.0003    0.0000   -0.0000   -0.0000    0.0000   -0.0003    0.0300    0.1624
    30 CR1    3d0        0.0004    0.0003   -0.0000    0.0000   -0.0000   -0.0000    0.0000   -0.0005    0.0022    0.0145
    31 CR1    3d1+      -0.0000   -0.0000   -0.0000   -0.0002    0.0002    0.0002   -0.0002   -0.0000   -0.0000   -0.0000
    32 CR1    3d1+      -0.0000    0.0000   -0.0000   -0.0002    0.0002    0.0003   -0.0002   -0.0000   -0.0000   -0.0000
    33 CR1    3d1+       0.0000   -0.0000   -0.0000   -0.0001    0.0001   -0.0001    0.0001    0.0000   -0.0000   -0.0000
    34 CR1    3d1+      -0.0000    0.0000    0.0000    0.0001   -0.0001    0.0003   -0.0003   -0.0000   -0.0000   -0.0000
    35 CR1    3d2+       0.0000   -0.0000   -0.0000   -0.0000   -0.0000    0.0000    0.0000   -0.0000   -0.0000    0.0000
    36 CR1    3d2+       0.0000   -0.0000    0.0000   -0.0000   -0.0000    0.0000    0.0000    0.0000   -0.0000    0.0000
    37 CR1    3d2+       0.0000   -0.0000    0.0000    0.0000   -0.0000    0.0000    0.0000   -0.0000    0.0000    0.0000
    38 CR1    3d2+      -0.0000    0.0000    0.0000   -0.0000    0.0000   -0.0000   -0.0000    0.0000    0.0000    0.0000
    39 CR1    4f3-       0.0000   -0.0000    0.0000   -0.0000   -0.0000    0.0000    0.0000    0.0000    0.0000   -0.0000
    40 CR1    4f2-       0.0000   -0.0000   -0.0000    0.0000    0.0000    0.0000   -0.0000    0.0000   -0.0000   -0.0000
    41 CR1    4f1-       0.0000    0.0000    0.0000   -0.0000   -0.0000    0.0000    0.0000   -0.0000    0.0000   -0.0000
    42 CR1    4f0        0.0000   -0.0000    0.0000    0.0000    0.0000   -0.0000    0.0000   -0.0000    0.0002   -0.0002
    43 CR1    4f1+       0.0000   -0.0000   -0.0000   -0.0000    0.0000    0.0000   -0.0000    0.0000   -0.0000    0.0000
    44 CR1    4f2+       0.0000   -0.0000    0.0000    0.0000    0.0000   -0.0000   -0.0000   -0.0000    0.0000    0.0000
    45 CR1    4f3+       0.0000   -0.0000    0.0000   -0.0000    0.0000    0.0000   -0.0000   -0.0000   -0.0000   -0.0000
    46 CR2    1s        -0.0793   -0.0790   -0.0001    0.0000   -0.0000   -0.0000    0.0000   -0.0001   -0.0161    0.0029
    47 CR2    1s         0.3142    0.3132    0.0002   -0.0000    0.0000    0.0000    0.0000    0.0004    0.0556   -0.0100
    48 CR2    1s        -0.4492   -0.4479   -0.0008    0.0000   -0.0000   -0.0000    0.0000   -0.0009   -0.1242    0.0231
    49 CR2    1s        -0.3320   -0.3307    0.0003   -0.0000   -0.0000   -0.0000   -0.0000   -0.0002   -0.1701    0.0303
    50 CR2    1s        -0.0104   -0.0105   -0.0001    0.0000   -0.0000    0.0000   -0.0000    0.0003    0.3532   -0.0670
    51 CR2    1s         0.0034    0.0037   -0.0005    0.0000   -0.0000    0.0000   -0.0000    0.0010    0.3490   -0.0681
    52 CR2    2px       -0.0000   -0.0000   -0.0000   -0.1892    0.1725   -0.1949    0.1659    0.0000   -0.0000    0.0000
    53 CR2    2px        0.0000    0.0000    0.0000    0.4519   -0.4122    0.4656   -0.3962   -0.0000    0.0000   -0.0000
    54 CR2    2px        0.0000    0.0000    0.0000    0.1391   -0.1268    0.1434   -0.1220   -0.0000   -0.0000    0.0000
    55 CR2    2px        0.0000   -0.0000    0.0000    0.0037   -0.0034    0.0036   -0.0031   -0.0000    0.0000    0.0000
    56 CR2    2py        0.0000    0.0000    0.0000   -0.1725   -0.1892   -0.1659   -0.1949   -0.0000    0.0000    0.0000
    57 CR2    2py       -0.0000   -0.0000   -0.0000    0.4122    0.4519    0.3962    0.4656    0.0000   -0.0000   -0.0000
    58 CR2    2py       -0.0000   -0.0000   -0.0000    0.1268    0.1391    0.1220    0.1434    0.0000    0.0000    0.0000
    59 CR2    2py       -0.0000   -0.0000   -0.0000    0.0034    0.0037    0.0031    0.0036    0.0000   -0.0000    0.0000
    60 CR2    2pz        0.0002    0.0002   -0.2560    0.0000   -0.0000   -0.0000    0.0000   -0.2560   -0.0049   -0.0001
    61 CR2    2pz       -0.0005   -0.0004    0.6116   -0.0000    0.0000    0.0000   -0.0000    0.6115    0.0131    0.0004
    62 CR2    2pz       -0.0003   -0.0006    0.1880   -0.0000    0.0000    0.0000   -0.0000    0.1886    0.0060   -0.0001
    63 CR2    2pz       -0.0000    0.0004    0.0053   -0.0000    0.0000    0.0000   -0.0000    0.0039   -0.0167   -0.0005
    64 CR2    3d2-       0.0000    0.0000    0.0000    0.0000    0.0000   -0.0000    0.0000    0.0000    0.0000   -0.0000
    65 CR2    3d2-       0.0000    0.0000   -0.0000   -0.0000    0.0000   -0.0000    0.0000   -0.0000    0.0000   -0.0000
    66 CR2    3d2-      -0.0000   -0.0000   -0.0000    0.0000   -0.0000   -0.0000    0.0000   -0.0000    0.0000   -0.0000
    67 CR2    3d2-       0.0000   -0.0000    0.0000   -0.0000   -0.0000    0.0000    0.0000    0.0000   -0.0000   -0.0000
    68 CR2    3d1-      -0.0000   -0.0000   -0.0000    0.0002    0.0002    0.0002    0.0002   -0.0000    0.0000    0.0000
    69 CR2    3d1-      -0.0000   -0.0000   -0.0000    0.0002    0.0002    0.0002    0.0003   -0.0000    0.0000    0.0000
    70 CR2    3d1-      -0.0000   -0.0000    0.0000    0.0001    0.0001   -0.0001   -0.0001    0.0000    0.0000    0.0000
    71 CR2    3d1-      -0.0000    0.0000    0.0000   -0.0001   -0.0001    0.0003    0.0003    0.0000   -0.0000    0.0000
    72 CR2    3d0       -0.0000   -0.0000    0.0003   -0.0000    0.0000    0.0000   -0.0000    0.0004    0.0654    0.4269
    73 CR2    3d0        0.0000    0.0001    0.0004   -0.0000    0.0000    0.0000   -0.0000    0.0002    0.0439    0.2864
    74 CR2    3d0       -0.0000   -0.0003   -0.0003    0.0000   -0.0000    0.0000   -0.0000    0.0003    0.0300    0.1624
    75 CR2    3d0        0.0004   -0.0003   -0.0000   -0.0000   -0.0000    0.0000   -0.0000    0.0005    0.0022    0.0145
    76 CR2    3d1+       0.0000    0.0000    0.0000    0.0002   -0.0002    0.0002   -0.0002    0.0000    0.0000    0.0000
    77 CR2    3d1+       0.0000    0.0000    0.0000    0.0002   -0.0002    0.0003   -0.0002    0.0000    0.0000    0.0000
    78 CR2    3d1+      -0.0000    0.0000    0.0000    0.0001   -0.0001   -0.0001    0.0001    0.0000    0.0000    0.0000
    79 CR2    3d1+      -0.0000   -0.0000   -0.0000   -0.0001    0.0001    0.0003   -0.0003   -0.0000    0.0000    0.0000
    80 CR2    3d2+      -0.0000   -0.0000    0.0000    0.0000   -0.0000    0.0000   -0.0000    0.0000   -0.0000    0.0000
    81 CR2    3d2+      -0.0000    0.0000   -0.0000    0.0000   -0.0000    0.0000   -0.0000   -0.0000    0.0000    0.0000
    82 CR2    3d2+      -0.0000   -0.0000   -0.0000    0.0000   -0.0000   -0.0000    0.0000   -0.0000    0.0000    0.0000
    83 CR2    3d2+       0.0000   -0.0000    0.0000   -0.0000   -0.0000   -0.0000    0.0000   -0.0000   -0.0000    0.0000
    84 CR2    4f3-       0.0000    0.0000    0.0000    0.0000    0.0000    0.0000    0.0000    0.0000   -0.0000    0.0000
    85 CR2    4f2-       0.0000   -0.0000    0.0000   -0.0000   -0.0000   -0.0000   -0.0000    0.0000    0.0000    0.0000
    86 CR2    4f1-      -0.0000    0.0000    0.0000   -0.0000   -0.0000   -0.0000   -0.0000    0.0000   -0.0000   -0.0000
    87 CR2    4f0       -0.0000   -0.0000   -0.0000    0.0000   -0.0000    0.0000   -0.0000   -0.0000   -0.0002    0.0002
    88 CR2    4f1+      -0.0000   -0.0000   -0.0000   -0.0000    0.0000   -0.0000    0.0000   -0.0000    0.0000    0.0000
    89 CR2    4f2+       0.0000   -0.0000    0.0000   -0.0000    0.0000   -0.0000    0.0000    0.0000    0.0000    0.0000
    90 CR2    4f3+      -0.0000    0.0000   -0.0000    0.0000    0.0000    0.0000    0.0000    0.0000   -0.0000   -0.0000


      Orbital                21        22        23        24        25        26        27        28        29        30
      Energy             0.0000    0.0000    0.0000    0.0000    0.0000    0.0000    0.0000    0.0000    0.0000    0.0000
      Occ. No.           1.0143    1.0143    1.0024    1.0024    0.9976    0.9976    0.9857    0.9857    0.9851    0.6209

     1 CR1    1s         0.0000    0.0000    0.0000    0.0000   -0.0000    0.0000    0.0000    0.0000    0.0030   -0.0187
     2 CR1    1s        -0.0000   -0.0000   -0.0000   -0.0000    0.0000   -0.0000   -0.0000   -0.0000   -0.0102    0.0637
     3 CR1    1s         0.0000    0.0000    0.0000   -0.0000   -0.0000    0.0000    0.0000    0.0000    0.0238   -0.1470
     4 CR1    1s         0.0000    0.0000    0.0000    0.0000   -0.0000    0.0000    0.0000    0.0000    0.0308   -0.1983
     5 CR1    1s        -0.0000   -0.0000   -0.0000   -0.0000    0.0000   -0.0000   -0.0000   -0.0000   -0.0733    0.4849
     6 CR1    1s        -0.0000   -0.0000   -0.0000   -0.0000    0.0000   -0.0000   -0.0000   -0.0000   -0.0628    0.4329
     7 CR1    2px       -0.0001    0.0001   -0.0000    0.0000    0.0000    0.0000    0.0006   -0.0006    0.0000   -0.0000
     8 CR1    2px        0.0005   -0.0005    0.0000    0.0000   -0.0000   -0.0000   -0.0016    0.0017   -0.0000    0.0000
     9 CR1    2px       -0.0005    0.0005   -0.0000   -0.0000   -0.0000   -0.0000   -0.0002    0.0002   -0.0000   -0.0000
    10 CR1    2px       -0.0008    0.0007   -0.0000    0.0000    0.0000   -0.0000    0.0021   -0.0023    0.0000    0.0000
    11 CR1    2py       -0.0001   -0.0001    0.0000   -0.0000    0.0000   -0.0000   -0.0006   -0.0006    0.0000   -0.0000
    12 CR1    2py        0.0005    0.0005   -0.0000    0.0000   -0.0000    0.0000    0.0017    0.0016   -0.0000    0.0000
    13 CR1    2py       -0.0005   -0.0005    0.0000    0.0000    0.0000   -0.0000    0.0002    0.0002   -0.0000    0.0000
    14 CR1    2py       -0.0007   -0.0008   -0.0000   -0.0000    0.0000    0.0000   -0.0023   -0.0021    0.0000   -0.0000
    15 CR1    2pz        0.0000    0.0000   -0.0000    0.0000    0.0000   -0.0000   -0.0000   -0.0000   -0.0008   -0.0040
    16 CR1    2pz       -0.0000   -0.0000    0.0000   -0.0000   -0.0000    0.0000    0.0000    0.0000    0.0024    0.0105
    17 CR1    2pz        0.0000    0.0000    0.0000    0.0000    0.0000   -0.0000    0.0000   -0.0000   -0.0007    0.0043
    18 CR1    2pz        0.0000   -0.0000   -0.0000   -0.0000    0.0000   -0.0000   -0.0000   -0.0000   -0.0009    0.0018
    19 CR1    3d2-       0.0000    0.0000    0.3100   -0.3056    0.3060    0.3107    0.0000    0.0000   -0.0000   -0.0000
    20 CR1    3d2-       0.0000    0.0000    0.2075   -0.2046    0.2048    0.2080    0.0000    0.0000   -0.0000   -0.0000
    21 CR1    3d2-       0.0000    0.0000    0.1177   -0.1160    0.1161    0.1179    0.0000    0.0000   -0.0000    0.0000
    22 CR1    3d2-       0.0000    0.0000    0.0111   -0.0110    0.0106    0.0108    0.0000    0.0000    0.0000   -0.0000
    23 CR1    3d1-       0.2956    0.3171    0.0000    0.0000   -0.0000    0.0000    0.3203    0.2986   -0.0000    0.0000
    24 CR1    3d1-       0.1978    0.2122    0.0000    0.0000   -0.0000    0.0000    0.2143    0.1998   -0.0000    0.0000
    25 CR1    3d1-       0.1129    0.1211    0.0000    0.0000   -0.0000    0.0000    0.1210    0.1128   -0.0000    0.0000
    26 CR1    3d1-       0.0106    0.0113    0.0000    0.0000   -0.0000    0.0000    0.0109    0.0101   -0.0000    0.0000
    27 CR1    3d0        0.0000   -0.0000    0.0000    0.0000   -0.0000    0.0000    0.0000    0.0000    0.4316    0.0847
    28 CR1    3d0        0.0000   -0.0000    0.0000    0.0000   -0.0000    0.0000   -0.0000    0.0000    0.2879    0.0560
    29 CR1    3d0        0.0000   -0.0000    0.0000    0.0000   -0.0000    0.0000    0.0000    0.0000    0.1652    0.0292
    30 CR1    3d0        0.0000   -0.0000    0.0000    0.0000   -0.0000    0.0000   -0.0000    0.0000    0.0150    0.0004
    31 CR1    3d1+       0.3171   -0.2956    0.0000    0.0000   -0.0000    0.0000   -0.2986    0.3203   -0.0000   -0.0000
    32 CR1    3d1+       0.2122   -0.1978    0.0000    0.0000   -0.0000    0.0000   -0.1998    0.2143   -0.0000   -0.0000
    33 CR1    3d1+       0.1211   -0.1129    0.0000    0.0000   -0.0000    0.0000   -0.1128    0.1210   -0.0000    0.0000
    34 CR1    3d1+       0.0113   -0.0106    0.0000    0.0000    0.0000    0.0000   -0.0101    0.0109   -0.0000   -0.0000
    35 CR1    3d2+       0.0000    0.0000   -0.3056   -0.3100    0.3107   -0.3060    0.0000    0.0000    0.0000   -0.0000
    36 CR1    3d2+       0.0000    0.0000   -0.2046   -0.2075    0.2080   -0.2048    0.0000    0.0000    0.0000   -0.0000
    37 CR1    3d2+       0.0000    0.0000   -0.1160   -0.1177    0.1179   -0.1161    0.0000    0.0000    0.0000   -0.0000
    38 CR1    3d2+       0.0000    0.0000   -0.0110   -0.0111    0.0108   -0.0106   -0.0000    0.0000    0.0000    0.0000
    39 CR1    4f3-      -0.0000    0.0000   -0.0000   -0.0000   -0.0000    0.0000   -0.0000    0.0000    0.0000   -0.0000
    40 CR1    4f2-      -0.0000    0.0000   -0.0002    0.0002   -0.0002   -0.0002   -0.0000    0.0000    0.0000   -0.0000
    41 CR1    4f1-      -0.0002   -0.0002    0.0000   -0.0000   -0.0000    0.0000   -0.0003   -0.0002    0.0000   -0.0000
    42 CR1    4f0       -0.0000   -0.0000    0.0000   -0.0000   -0.0000   -0.0000   -0.0000   -0.0000   -0.0004   -0.0001
    43 CR1    4f1+      -0.0002    0.0002    0.0000    0.0000    0.0000   -0.0000    0.0002   -0.0003   -0.0000    0.0000
    44 CR1    4f2+      -0.0000    0.0000    0.0002    0.0002   -0.0002    0.0002   -0.0000    0.0000   -0.0000   -0.0000
    45 CR1    4f3+       0.0000    0.0000   -0.0000   -0.0000   -0.0000    0.0000   -0.0000   -0.0000    0.0000    0.0000
    46 CR2    1s         0.0000    0.0000    0.0000   -0.0000   -0.0000   -0.0000   -0.0000   -0.0000   -0.0030    0.0187
    47 CR2    1s        -0.0000   -0.0000   -0.0000    0.0000    0.0000    0.0000    0.0000    0.0000    0.0102   -0.0637
    48 CR2    1s         0.0000    0.0000    0.0000   -0.0000   -0.0000   -0.0000   -0.0000   -0.0000   -0.0238    0.1470
    49 CR2    1s         0.0000    0.0000    0.0000   -0.0000   -0.0000   -0.0000   -0.0000   -0.0000   -0.0308    0.1983
    50 CR2    1s        -0.0000   -0.0000   -0.0000   -0.0000    0.0000    0.0000    0.0000    0.0000    0.0733   -0.4849
    51 CR2    1s        -0.0000   -0.0000   -0.0000    0.0000    0.0000    0.0000    0.0000    0.0000    0.0628   -0.4329
    52 CR2    2px       -0.0001    0.0001    0.0000   -0.0000   -0.0000    0.0000   -0.0006    0.0006   -0.0000    0.0000
    53 CR2    2px        0.0005   -0.0005   -0.0000    0.0000    0.0000   -0.0000    0.0016   -0.0017    0.0000   -0.0000
    54 CR2    2px       -0.0005    0.0005    0.0000   -0.0000    0.0000    0.0000    0.0002   -0.0002    0.0000   -0.0000
    55 CR2    2px       -0.0008    0.0007    0.0000   -0.0000   -0.0000    0.0000   -0.0021    0.0023   -0.0000    0.0000
    56 CR2    2py       -0.0001   -0.0001   -0.0000    0.0000   -0.0000    0.0000    0.0006    0.0006   -0.0000   -0.0000
    57 CR2    2py        0.0005    0.0005    0.0000   -0.0000    0.0000   -0.0000   -0.0017   -0.0016    0.0000    0.0000
    58 CR2    2py       -0.0005   -0.0005   -0.0000   -0.0000    0.0000    0.0000   -0.0002   -0.0002   -0.0000    0.0000
    59 CR2    2py       -0.0007   -0.0008   -0.0000    0.0000   -0.0000    0.0000    0.0023    0.0021   -0.0000   -0.0000
    60 CR2    2pz       -0.0000    0.0000   -0.0000   -0.0000    0.0000   -0.0000   -0.0000   -0.0000   -0.0008   -0.0040
    61 CR2    2pz        0.0000   -0.0000    0.0000    0.0000   -0.0000    0.0000   -0.0000    0.0000    0.0024    0.0105
    62 CR2    2pz       -0.0000    0.0000   -0.0000   -0.0000    0.0000   -0.0000    0.0000   -0.0000   -0.0007    0.0043
    63 CR2    2pz       -0.0000   -0.0000   -0.0000   -0.0000   -0.0000   -0.0000   -0.0000   -0.0000   -0.0009    0.0018
    64 CR2    3d2-       0.0000   -0.0000    0.3100   -0.3056   -0.3060   -0.3107    0.0000   -0.0000    0.0000   -0.0000
    65 CR2    3d2-       0.0000   -0.0000    0.2075   -0.2046   -0.2048   -0.2080    0.0000   -0.0000    0.0000   -0.0000
    66 CR2    3d2-       0.0000   -0.0000    0.1177   -0.1160   -0.1161   -0.1179    0.0000   -0.0000    0.0000   -0.0000
    67 CR2    3d2-       0.0000   -0.0000    0.0111   -0.0110   -0.0106   -0.0108    0.0000   -0.0000   -0.0000    0.0000
    68 CR2    3d1-      -0.2956   -0.3171   -0.0000    0.0000    0.0000    0.0000    0.3203    0.2986   -0.0000   -0.0000
    69 CR2    3d1-      -0.1978   -0.2122   -0.0000    0.0000    0.0000    0.0000    0.2143    0.1998   -0.0000   -0.0000
    70 CR2    3d1-      -0.1129   -0.1211   -0.0000    0.0000    0.0000    0.0000    0.1210    0.1128   -0.0000    0.0000
    71 CR2    3d1-      -0.0106   -0.0113   -0.0000    0.0000    0.0000    0.0000    0.0109    0.0101   -0.0000    0.0000
    72 CR2    3d0        0.0000    0.0000    0.0000    0.0000    0.0000   -0.0000   -0.0000   -0.0000   -0.4316   -0.0847
    73 CR2    3d0        0.0000    0.0000    0.0000    0.0000    0.0000   -0.0000   -0.0000   -0.0000   -0.2879   -0.0560
    74 CR2    3d0        0.0000    0.0000    0.0000    0.0000    0.0000   -0.0000   -0.0000   -0.0000   -0.1652   -0.0292
    75 CR2    3d0        0.0000    0.0000    0.0000    0.0000    0.0000   -0.0000   -0.0000   -0.0000   -0.0150   -0.0004
    76 CR2    3d1+      -0.3171    0.2956    0.0000   -0.0000   -0.0000   -0.0000   -0.2986    0.3203   -0.0000   -0.0000
    77 CR2    3d1+      -0.2122    0.1978    0.0000   -0.0000   -0.0000   -0.0000   -0.1998    0.2143   -0.0000   -0.0000
    78 CR2    3d1+      -0.1211    0.1129    0.0000   -0.0000   -0.0000   -0.0000   -0.1128    0.1210   -0.0000   -0.0000
    79 CR2    3d1+      -0.0113    0.0106    0.0000   -0.0000   -0.0000   -0.0000   -0.0101    0.0109   -0.0000    0.0000
    80 CR2    3d2+       0.0000   -0.0000   -0.3056   -0.3100   -0.3107    0.3060    0.0000   -0.0000   -0.0000   -0.0000
    81 CR2    3d2+       0.0000   -0.0000   -0.2046   -0.2075   -0.2080    0.2048    0.0000   -0.0000   -0.0000    0.0000
    82 CR2    3d2+       0.0000   -0.0000   -0.1160   -0.1177   -0.1179    0.1161    0.0000   -0.0000   -0.0000    0.0000
    83 CR2    3d2+       0.0000   -0.0000   -0.0110   -0.0111   -0.0108    0.0106    0.0000   -0.0000   -0.0000   -0.0000
    84 CR2    4f3-      -0.0000   -0.0000   -0.0000   -0.0000    0.0000    0.0000    0.0000    0.0000    0.0000    0.0000
    85 CR2    4f2-       0.0000   -0.0000    0.0002   -0.0002   -0.0002   -0.0002    0.0000    0.0000    0.0000    0.0000
    86 CR2    4f1-      -0.0002   -0.0002    0.0000   -0.0000   -0.0000    0.0000    0.0003    0.0002    0.0000   -0.0000
    87 CR2    4f0        0.0000    0.0000    0.0000    0.0000    0.0000   -0.0000    0.0000   -0.0000   -0.0004   -0.0001
    88 CR2    4f1+      -0.0002    0.0002   -0.0000    0.0000   -0.0000   -0.0000   -0.0002    0.0003   -0.0000    0.0000
    89 CR2    4f2+      -0.0000   -0.0000   -0.0002   -0.0002   -0.0002    0.0002   -0.0000    0.0000   -0.0000   -0.0000
    90 CR2    4f3+      -0.0000    0.0000   -0.0000   -0.0000   -0.0000   -0.0000   -0.0000    0.0000    0.0000   -0.0000


      Orbital                31        32        33        34
      Energy             0.1317    0.1359    0.1359    0.1439
      Occ. No.           0.0000    0.0000    0.0000    0.0000

     1 CR1    1s         0.0059    0.0000    0.0000   -0.0013
     2 CR1    1s        -0.0265   -0.0000   -0.0000    0.0002
     3 CR1    1s         0.0343    0.0000    0.0000   -0.0176
     4 CR1    1s         0.1266    0.0000    0.0000    0.0267
     5 CR1    1s        -0.6338   -0.0000   -0.0000   -0.2249
     6 CR1    1s         1.1111    0.0000    0.0000    0.1845
     7 CR1    2px        0.0000   -0.0279    0.0076   -0.0000
     8 CR1    2px       -0.0000    0.0746   -0.0204    0.0000
     9 CR1    2px       -0.0000    0.0615   -0.0168    0.0000
    10 CR1    2px        0.0000   -0.2710    0.0740   -0.0000
    11 CR1    2py        0.0000   -0.0076   -0.0279    0.0000
    12 CR1    2py       -0.0000    0.0204    0.0746   -0.0000
    13 CR1    2py       -0.0000    0.0168    0.0615   -0.0000
    14 CR1    2py        0.0000   -0.0740   -0.2710    0.0000
    15 CR1    2pz       -0.0184   -0.0000   -0.0000   -0.0475
    16 CR1    2pz        0.0543    0.0000    0.0000    0.1217
    17 CR1    2pz       -0.0052   -0.0000   -0.0000    0.1589
    18 CR1    2pz        0.0506    0.0000    0.0000   -0.7512
    19 CR1    3d2-       0.0000    0.0000    0.0000    0.0000
    20 CR1    3d2-       0.0000   -0.0000    0.0000    0.0000
    21 CR1    3d2-       0.0000    0.0000    0.0000    0.0000
    22 CR1    3d2-      -0.0000   -0.0000    0.0000    0.0000
    23 CR1    3d1-       0.0000   -0.0126   -0.0462   -0.0000
    24 CR1    3d1-       0.0000   -0.0021   -0.0076    0.0000
    25 CR1    3d1-       0.0000   -0.0401   -0.1468   -0.0000
    26 CR1    3d1-      -0.0000    0.2238    0.8198    0.0000
    27 CR1    3d0       -0.0536   -0.0000   -0.0000   -0.0015
    28 CR1    3d0       -0.0250   -0.0000   -0.0000    0.0229
    29 CR1    3d0       -0.0919   -0.0000   -0.0000   -0.1272
    30 CR1    3d0        0.7134    0.0000    0.0000    0.3935
    31 CR1    3d1+       0.0000   -0.0462    0.0126   -0.0000
    32 CR1    3d1+       0.0000   -0.0076    0.0021    0.0000
    33 CR1    3d1+       0.0000   -0.1468    0.0401   -0.0000
    34 CR1    3d1+      -0.0000    0.8198   -0.2238    0.0000
    35 CR1    3d2+       0.0000   -0.0000    0.0000   -0.0000
    36 CR1    3d2+      -0.0000   -0.0000    0.0000   -0.0000
    37 CR1    3d2+       0.0000   -0.0000   -0.0000   -0.0000
    38 CR1    3d2+      -0.0000   -0.0000    0.0000    0.0000
    39 CR1    4f3-       0.0000    0.0000    0.0000   -0.0000
    40 CR1    4f2-      -0.0000   -0.0000    0.0000   -0.0000
    41 CR1    4f1-       0.0000   -0.0001   -0.0004    0.0000
    42 CR1    4f0        0.0001    0.0000    0.0000   -0.0009
    43 CR1    4f1+       0.0000   -0.0004    0.0001    0.0000
    44 CR1    4f2+       0.0000   -0.0000    0.0000   -0.0000
    45 CR1    4f3+      -0.0000    0.0000    0.0000    0.0000
    46 CR2    1s        -0.0059   -0.0000   -0.0000   -0.0013
    47 CR2    1s         0.0265    0.0000    0.0000    0.0002
    48 CR2    1s        -0.0343   -0.0000   -0.0000   -0.0176
    49 CR2    1s        -0.1266   -0.0000   -0.0000    0.0267
    50 CR2    1s         0.6338    0.0000    0.0000   -0.2249
    51 CR2    1s        -1.1111   -0.0000   -0.0000    0.1845
    52 CR2    2px       -0.0000    0.0279   -0.0076    0.0000
    53 CR2    2px        0.0000   -0.0746    0.0204   -0.0000
    54 CR2    2px        0.0000   -0.0615    0.0168   -0.0000
    55 CR2    2px       -0.0000    0.2710   -0.0740    0.0000
    56 CR2    2py       -0.0000    0.0076    0.0279    0.0000
    57 CR2    2py        0.0000   -0.0204   -0.0746   -0.0000
    58 CR2    2py        0.0000   -0.0168   -0.0615   -0.0000
    59 CR2    2py       -0.0000    0.0740    0.2710    0.0000
    60 CR2    2pz       -0.0184   -0.0000   -0.0000    0.0475
    61 CR2    2pz        0.0543    0.0000    0.0000   -0.1217
    62 CR2    2pz       -0.0052    0.0000   -0.0000   -0.1589
    63 CR2    2pz        0.0506    0.0000    0.0000    0.7512
    64 CR2    3d2-       0.0000   -0.0000    0.0000    0.0000
    65 CR2    3d2-       0.0000   -0.0000    0.0000    0.0000
    66 CR2    3d2-       0.0000    0.0000   -0.0000    0.0000
    67 CR2    3d2-      -0.0000   -0.0000    0.0000   -0.0000
    68 CR2    3d1-       0.0000   -0.0126   -0.0462   -0.0000
    69 CR2    3d1-       0.0000   -0.0021   -0.0076   -0.0000
    70 CR2    3d1-       0.0000   -0.0401   -0.1468    0.0000
    71 CR2    3d1-      -0.0000    0.2238    0.8198   -0.0000
    72 CR2    3d0        0.0536    0.0000    0.0000   -0.0015
    73 CR2    3d0        0.0250    0.0000    0.0000    0.0229
    74 CR2    3d0        0.0919    0.0000    0.0000   -0.1272
    75 CR2    3d0       -0.7134   -0.0000   -0.0000    0.3935
    76 CR2    3d1+       0.0000   -0.0462    0.0126   -0.0000
    77 CR2    3d1+       0.0000   -0.0076    0.0021   -0.0000
    78 CR2    3d1+       0.0000   -0.1468    0.0401   -0.0000
    79 CR2    3d1+      -0.0000    0.8198   -0.2238    0.0000
    80 CR2    3d2+       0.0000   -0.0000    0.0000    0.0000
    81 CR2    3d2+       0.0000   -0.0000    0.0000    0.0000
    82 CR2    3d2+       0.0000   -0.0000    0.0000   -0.0000
    83 CR2    3d2+      -0.0000    0.0000    0.0000    0.0000
    84 CR2    4f3-      -0.0000   -0.0000   -0.0000   -0.0000
    85 CR2    4f2-      -0.0000   -0.0000   -0.0000    0.0000
    86 CR2    4f1-      -0.0000    0.0001    0.0004    0.0000
    87 CR2    4f0        0.0001    0.0000    0.0000    0.0009
    88 CR2    4f1+      -0.0000    0.0004   -0.0001    0.0000
    89 CR2    4f2+       0.0000   -0.0000   -0.0000    0.0000
    90 CR2    4f3+      -0.0000   -0.0000   -0.0000   -0.0000
--

      Von Neumann Entropy (Root  1) =  5.89325


      Mulliken population analysis for root number:  1
      -----------------------------------------------


++    Molecular charges:
      ------------------

      Mulliken charges per centre and basis function type
      ---------------------------------------------------

                CR1     CR2   
      1s       6.9964  6.9964
      2px      4.0000  4.0000
      2pz      4.0026  4.0026
      2py      4.0000  4.0000
      3d2+     1.0000  1.0000
      3d1+     1.0000  1.0000
      3d0      1.0010  1.0010
      3d1-     1.0000  1.0000
      3d2-     1.0000  1.0000
      4f3+     0.0000  0.0000
      4f2+     0.0000  0.0000
      4f1+     0.0000  0.0000
      4f0      0.0000  0.0000
      4f1-     0.0000  0.0000
      4f2-     0.0000  0.0000
      4f3-     0.0000  0.0000
      Total   24.0000 24.0000

      N-E      0.0000 -0.0000

      Total electronic charge=   48.000000

      Total            charge=   -0.000000
--



      Expectation values of various properties for root number:  1
      -----------------------------------------------------------


++    Molecular properties:
      ---------------------

      Charge (e):
                      =   -0.0000
      Dipole Moment (Debye):
      Origin of the operator (Ang)=    0.0000    0.0000    0.0000
                   X=  1.6786E-07               Y=  6.8018E-08               Z= -8.4794E-08           Total=  1.9999E-07
      Quadrupole Moment (Debye*Ang):
      Origin of the operator (Ang)=    0.0000    0.0000    2.0000
                  XX= -3.3741E+01              XY=  2.3964E-07              XZ=  1.5078E-07              YY= -3.3741E+01
                  YZ= -4.7159E-07              ZZ= -3.1189E+01
      In traceless form (Debye*Ang)
                  XX= -1.2759E+00              XY=  3.5946E-07              XZ=  2.2617E-07              YY= -1.2759E+00
                  YZ= -7.0738E-07              ZZ=  2.5518E+00
--


  Input file to MOLDEN was generated!

      Average orbitals are written to the RASORB file
      Natural orbitals for root   1 are written to the RASORB.1 file
      Spin density orbitals for root   1 are written to the SPDORB.1 file

--- Stop Module: rasscf at Mon Jul  5 15:37:23 2021 /rc=_RC_ALL_IS_WELL_ ---
*** files: Cr2_40_uhf_SUHFNO_CASSCF.rasscf.molden Cr2_40_uhf_SUHFNO_CASSCF.RasOrb Cr2_40_uhf_SUHFNO_CASSCF.RasOrb.1 Cr2_40_uhf_SUHFNO_CASSCF.rasscf.h5
           Cr2_40_uhf_SUHFNO_CASSCF.SpdOrb.1 xmldump
    saved to directory /share/home/srwang/automr_inputlibrary/suhf_vs_gvb/Cr2_40_om
--- Module rasscf spent 3 minutes 27 seconds ---

.##################.
.# Happy landing! #.
.##################.

    Timing: Wall=210.75 User=3005.57 System=103.57
