HF file generated by AutoMR of MOKIT                                    
Stability UHF                                                         Gen                 
Number of atoms                            I                2
Info1-9                                    I   N=           9
           6           5           0           0           0         110
           7           1           2
Charge                                     I                0
Multiplicity                               I                1
Number of electrons                        I               48
Number of alpha electrons                  I               24
Number of beta electrons                   I               24
Number of basis functions                  I               90
Number of independent functions            I               90
Number of point charges in /Mol/           I                0
Number of translation vectors              I                0
Atomic numbers                             I   N=           2
          24          24
Nuclear charges                            R   N=           2
  2.40000000E+01  2.40000000E+01
Current cartesian coordinates              R   N=           6
  0.00000000E+00  0.00000000E+00  0.00000000E+00  0.00000000E+00  0.00000000E+00
  7.55890453E+00
Force Field                                I                0
Int Atom Types                             I   N=           2
           0           0
MM charges                                 R   N=           2
  0.00000000E+00  0.00000000E+00
Integer atomic weights                     I   N=           2
          52          52
Real atomic weights                        R   N=           2
  5.19405097E+01  5.19405097E+01
Atom fragment info                         I   N=           2
           1           2
Atom residue num                           I   N=           2
           0           0
Nuclear spins                              I   N=           2
           0           0
Nuclear ZEff                               R   N=           2
 -2.47200000E+01 -2.47200000E+01
Nuclear QMom                               R   N=           2
  0.00000000E+00  0.00000000E+00
Nuclear GFac                               R   N=           2
  0.00000000E+00  0.00000000E+00
MicOpt                                     I   N=           2
          -1          -1
Number of contracted shells                I               30
Number of primitive shells                 I               72
Pure/Cartesian d shells                    I                0
Pure/Cartesian f shells                    I                0
Highest angular momentum                   I                3
Largest degree of contraction              I                8
Shell types                                I   N=          30
           0           0           0           0           0           0
           1           1           1          -2          -2          -2
           1          -2          -3           0           0           0
           0           0           0           1           1           1
          -2          -2          -2           1          -2          -3
Number of primitives per shell             I   N=          30
           8           4           2           1           1           1
           6           3           1           4           1           1
           1           1           1           8           4           2
           1           1           1           6           3           1
           4           1           1           1           1           1
Shell to atom map                          I   N=          30
           1           1           1           1           1           1
           1           1           1           1           1           1
           1           1           1           2           2           2
           2           2           2           2           2           2
           2           2           2           2           2           2
Primitive exponents                        R   N=          72
  2.54477807E+05  3.81317971E+04  8.67529306E+03  2.45500998E+03  7.99162178E+02
  2.86900215E+02  1.11254132E+02  4.38641526E+01  2.79326692E+02  8.62747324E+01
  1.35557561E+01  5.69781128E+00  8.56365826E+00  1.39882968E+00  5.72881711E-01
  9.00961713E-02  3.41258851E-02  1.30643989E+03  3.09253114E+02  9.89962740E+01
  3.67569165E+01  1.45666571E+01  5.87399374E+00  2.28909997E+01  3.08550018E+00
  1.21323291E+00  4.49316807E-01  4.37200745E+01  1.23912427E+01  4.26394420E+00
  1.55252218E+00  5.37619295E-01  1.64931731E-01  1.20675000E-01  5.10000000E-02
  1.14700000E+00  2.54477807E+05  3.81317971E+04  8.67529306E+03  2.45500998E+03
  7.99162178E+02  2.86900215E+02  1.11254132E+02  4.38641526E+01  2.79326692E+02
  8.62747324E+01  1.35557561E+01  5.69781128E+00  8.56365826E+00  1.39882968E+00
  5.72881711E-01  9.00961713E-02  3.41258851E-02  1.30643989E+03  3.09253114E+02
  9.89962740E+01  3.67569165E+01  1.45666571E+01  5.87399374E+00  2.28909997E+01
  3.08550018E+00  1.21323291E+00  4.49316807E-01  4.37200745E+01  1.23912427E+01
  4.26394420E+00  1.55252218E+00  5.37619295E-01  1.64931731E-01  1.20675000E-01
  5.10000000E-02  1.14700000E+00
Contraction coefficients                   R   N=          72
  2.42904776E-04  1.88435236E-03  9.80095844E-03  3.98250087E-02  1.29405437E-01
  3.06290018E-01  4.34628350E-01  2.24695629E-01 -2.43633579E-02 -1.15114954E-01
  5.50922663E-01  5.36113547E-01 -3.71230177E-01  1.16811695E+00  1.00000000E+00
  1.00000000E+00  1.00000000E+00  2.82928007E-03  2.27766292E-02  1.05645619E-01
  2.99499449E-01  4.77062454E-01  2.76542344E-01 -1.94121061E-02  3.86188758E-01
  6.76239089E-01  1.00000000E+00  2.20932593E-02  1.28014388E-01  3.86529103E-01
  6.41033014E-01  1.00000000E+00  1.00000000E+00  1.00000000E+00  1.00000000E+00
  1.00000000E+00  2.42904776E-04  1.88435236E-03  9.80095844E-03  3.98250087E-02
  1.29405437E-01  3.06290018E-01  4.34628350E-01  2.24695629E-01 -2.43633579E-02
 -1.15114954E-01  5.50922663E-01  5.36113547E-01 -3.71230177E-01  1.16811695E+00
  1.00000000E+00  1.00000000E+00  1.00000000E+00  2.82928007E-03  2.27766292E-02
  1.05645619E-01  2.99499449E-01  4.77062454E-01  2.76542344E-01 -1.94121061E-02
  3.86188758E-01  6.76239089E-01  1.00000000E+00  2.20932593E-02  1.28014388E-01
  3.86529103E-01  6.41033014E-01  1.00000000E+00  1.00000000E+00  1.00000000E+00
  1.00000000E+00  1.00000000E+00
Coordinates of each shell                  R   N=          90
  0.00000000E+00  0.00000000E+00  0.00000000E+00  0.00000000E+00  0.00000000E+00
  0.00000000E+00  0.00000000E+00  0.00000000E+00  0.00000000E+00  0.00000000E+00
  0.00000000E+00  0.00000000E+00  0.00000000E+00  0.00000000E+00  0.00000000E+00
  0.00000000E+00  0.00000000E+00  0.00000000E+00  0.00000000E+00  0.00000000E+00
  0.00000000E+00  0.00000000E+00  0.00000000E+00  0.00000000E+00  0.00000000E+00
  0.00000000E+00  0.00000000E+00  0.00000000E+00  0.00000000E+00  0.00000000E+00
  0.00000000E+00  0.00000000E+00  0.00000000E+00  0.00000000E+00  0.00000000E+00
  0.00000000E+00  0.00000000E+00  0.00000000E+00  0.00000000E+00  0.00000000E+00
  0.00000000E+00  0.00000000E+00  0.00000000E+00  0.00000000E+00  0.00000000E+00
  0.00000000E+00  0.00000000E+00  7.55890453E+00  0.00000000E+00  0.00000000E+00
  7.55890453E+00  0.00000000E+00  0.00000000E+00  7.55890453E+00  0.00000000E+00
  0.00000000E+00  7.55890453E+00  0.00000000E+00  0.00000000E+00  7.55890453E+00
  0.00000000E+00  0.00000000E+00  7.55890453E+00  0.00000000E+00  0.00000000E+00
  7.55890453E+00  0.00000000E+00  0.00000000E+00  7.55890453E+00  0.00000000E+00
  0.00000000E+00  7.55890453E+00  0.00000000E+00  0.00000000E+00  7.55890453E+00
  0.00000000E+00  0.00000000E+00  7.55890453E+00  0.00000000E+00  0.00000000E+00
  7.55890453E+00  0.00000000E+00  0.00000000E+00  7.55890453E+00  0.00000000E+00
  0.00000000E+00  7.55890453E+00  0.00000000E+00  0.00000000E+00  7.55890453E+00
Constraint Structure                       R   N=           6
  0.00000000E+00  0.00000000E+00  0.00000000E+00  0.00000000E+00  0.00000000E+00
  7.55890453E+00
Num ILSW                                   I              100
ILSW                                       I   N=         100
           1           0           0           0           2           1
           0           0           0           0           0          -1
           0           0           0           0           0           0
           0           0           0           0           0           0
           1           1           0           0           0           0
           0           0      100000           0          -1           0
           0           0           0           0           0           0
           0           0           0           1           0           0
           0           0           1           0           0           0
           0           0           4          40           0           0
           0           0           0           0           0           0
           0           0           0           0           0           0
           0           0           0           0           0           0
           0           0           0           0           0           0
           0           0           0           0           0           0
           0           0           0           0           0           0
           0           0           0           0
Num RLSW                                   I               40
RLSW                                       R   N=          40
  1.00000000E+00  1.00000000E+00  1.00000000E+00  1.00000000E+00  1.00000000E+00
  0.00000000E+00  0.00000000E+00  1.00000000E+00  0.00000000E+00  0.00000000E+00
  0.00000000E+00  0.00000000E+00  1.00000000E+00  0.00000000E+00  0.00000000E+00
  0.00000000E+00  0.00000000E+00  1.00000000E+00  0.00000000E+00  0.00000000E+00
  0.00000000E+00  0.00000000E+00  1.00000000E+00  0.00000000E+00  0.00000000E+00
  0.00000000E+00  0.00000000E+00  1.00000000E+00  0.00000000E+00  0.00000000E+00
  0.00000000E+00  0.00000000E+00  1.00000000E+00  0.00000000E+00  0.00000000E+00
  0.00000000E+00  0.00000000E+00  0.00000000E+00  1.00000000E+00  1.00000000E+00
ECP-MxAtEC                                 I           250000
ECP-MaxLECP                                I               10
ECP-MaxAtL                                 I          2250000
ECP-MxTECP                                 I         11250000
ECP-LenNCZ                                 I                0
ECP-KFirst                                 I   N=          20
           0           0           0           0           0           0
           0           0           0           0           0           0
           0           0           0           0           0           0
           0           0
ECP-KLast                                  I   N=          20
           0           0           0           0           0           0
           0           0           0           0           0           0
           0           0           0           0           0           0
           0           0
ECP-LMax                                   I   N=           2
           0           0
ECP-LPSkip                                 I   N=           2
           1           1
ECP-RNFroz                                 R   N=           2
  0.00000000E+00  0.00000000E+00
ECP-NLP                                    I                0
ECP-CLP1                                   R      0.000000000000000E+00
ECP-CLP2                                   R      0.000000000000000E+00
ECP-ZLP                                    R      0.000000000000000E+00
MxBond                                     I                1
NBond                                      I   N=           2
           0           0
IBond                                      I   N=           2
           0           0
RBond                                      R   N=           2
  0.00000000E+00  0.00000000E+00
Virial Ratio                               R      2.000025260610248E+00
SCF Energy                                 R     -2.086670643535291E+03
Total Energy                               R     -2.086670643535291E+03
S**2                                       R      5.898514692580772E+00
S**2 after annihilation                    R      1.824398861277341E+01
RMS Density                                R      1.915880506482937E-09
External E-field                           R   N=          35
  0.00000000E+00  0.00000000E+00  0.00000000E+00  0.00000000E+00  0.00000000E+00
  0.00000000E+00  0.00000000E+00  0.00000000E+00  0.00000000E+00  0.00000000E+00
  0.00000000E+00  0.00000000E+00  0.00000000E+00  0.00000000E+00  0.00000000E+00
  0.00000000E+00  0.00000000E+00  0.00000000E+00  0.00000000E+00  0.00000000E+00
  0.00000000E+00  0.00000000E+00  0.00000000E+00  0.00000000E+00  0.00000000E+00
  0.00000000E+00  0.00000000E+00  0.00000000E+00  0.00000000E+00  0.00000000E+00
  0.00000000E+00  0.00000000E+00  0.00000000E+00  0.00000000E+00  0.00000000E+00
IOpCl                                      I                1
IROHF                                      I                0
Alpha Orbital Energies                     R   N=          90
 -2.20387292E+02 -2.20385191E+02 -2.62609612E+01 -2.61596799E+01 -2.21898406E+01
 -2.21898406E+01 -2.21897458E+01 -2.20912282E+01 -2.20912071E+01 -2.20912071E+01
 -3.45937493E+00 -3.11214113E+00 -2.26228303E+00 -2.26228303E+00 -2.26221087E+00
 -1.84082917E+00 -1.84077621E+00 -1.84077621E+00 -3.73268033E-01 -3.73268033E-01
 -3.73142992E-01 -3.73142992E-01 -3.72714731E-01 -2.22311616E-01  2.59964282E-02
  1.11097448E-01  1.11097448E-01  1.15683754E-01  1.45240119E-01  1.45240119E-01
  1.46340383E-01  1.50285211E-01  1.50285211E-01  1.59142813E-01  1.79654207E-01
  1.79654207E-01  2.02155577E-01  2.02155577E-01  2.04745021E-01  2.69749199E-01
  2.91479696E-01  2.91479696E-01  3.65330300E-01  3.97867112E-01  3.97867112E-01
  3.98842666E-01  3.98842666E-01  3.99156213E-01  6.52918464E-01  6.52918464E-01
  6.53144073E-01  6.53144073E-01  6.58584975E-01  8.34901649E-01  8.34901649E-01
  8.36040592E-01  8.36040592E-01  8.71103777E-01  1.64677885E+00  1.64677885E+00
  1.66282735E+00  1.78409537E+00  1.78409537E+00  1.89529039E+00  2.32609283E+00
  2.45125746E+00  2.48635050E+00  2.48635050E+00  2.48685159E+00  2.48685159E+00
  2.51168515E+00  2.67356692E+00  2.67356692E+00  2.67569421E+00  2.67569421E+00
  2.71417905E+00  3.33250602E+00  3.33250602E+00  3.33261951E+00  3.33261951E+00
  3.33285947E+00  3.33285947E+00  3.33354254E+00  3.56729567E+00  3.56729567E+00
  3.56733013E+00  3.56733013E+00  3.56739012E+00  3.56739012E+00  3.56779140E+00
Beta Orbital Energies                      R   N=          90
 -2.20387292E+02 -2.20385191E+02 -2.62609612E+01 -2.61596799E+01 -2.21898406E+01
 -2.21898406E+01 -2.21897458E+01 -2.20912282E+01 -2.20912071E+01 -2.20912071E+01
 -3.45937493E+00 -3.11214113E+00 -2.26228303E+00 -2.26228303E+00 -2.26221087E+00
 -1.84082917E+00 -1.84077621E+00 -1.84077621E+00 -3.73268033E-01 -3.73268033E-01
 -3.73142992E-01 -3.73142992E-01 -3.72714731E-01 -2.22311616E-01  2.59964282E-02
  1.11097448E-01  1.11097448E-01  1.15683754E-01  1.45240119E-01  1.45240119E-01
  1.46340383E-01  1.50285211E-01  1.50285211E-01  1.59142813E-01  1.79654207E-01
  1.79654207E-01  2.02155577E-01  2.02155577E-01  2.04745021E-01  2.69749199E-01
  2.91479696E-01  2.91479696E-01  3.65330300E-01  3.97867111E-01  3.97867111E-01
  3.98842666E-01  3.98842666E-01  3.99156213E-01  6.52918464E-01  6.52918464E-01
  6.53144073E-01  6.53144073E-01  6.58584975E-01  8.34901649E-01  8.34901649E-01
  8.36040592E-01  8.36040592E-01  8.71103777E-01  1.64677885E+00  1.64677885E+00
  1.66282735E+00  1.78409537E+00  1.78409537E+00  1.89529039E+00  2.32609283E+00
  2.45125746E+00  2.48635050E+00  2.48635050E+00  2.48685159E+00  2.48685159E+00
  2.51168515E+00  2.67356692E+00  2.67356692E+00  2.67569421E+00  2.67569421E+00
  2.71417905E+00  3.33250602E+00  3.33250602E+00  3.33261951E+00  3.33261951E+00
  3.33285947E+00  3.33285947E+00  3.33354254E+00  3.56729567E+00  3.56729567E+00
  3.56733013E+00  3.56733013E+00  3.56739012E+00  3.56739012E+00  3.56779140E+00
Alpha MO coefficients                      R   N=        8100
  9.97814720E-01  6.97196451E-03 -2.26635393E-03  1.46731440E-03 -4.65240796E-04
  2.20367225E-04 -3.31309451E-17 -2.51545162E-16 -3.30949685E-07  5.82306541E-17
 -4.41533946E-17 -1.40787149E-06 -1.16111309E-16  5.31656948E-17  4.54173979E-06
 -1.58400929E-06  4.76858569E-17 -2.29155341E-16 -6.95350505E-17 -2.07457187E-17
  5.78799852E-06 -6.00698644E-17  3.55863863E-16  1.19232382E-16  4.46879798E-17
 -1.37038714E-05  1.93008731E-17 -2.29236327E-16 -1.02008511E-16 -4.16085929E-17
  1.22850713E-16 -2.62837318E-17 -1.22495567E-05  1.08526289E-05  2.90678027E-17
  7.30345273E-17  6.89779103E-17  1.01106831E-17 -8.34712719E-08 -1.05324677E-15
 -5.61398094E-16 -3.45933267E-17 -1.55234506E-16 -8.39069878E-16  8.77639964E-17
 -9.33401351E-05  4.73248744E-09  5.20909706E-06 -8.44869867E-06 -3.58461651E-06
 -1.17428390E-05 -6.97601522E-18 -1.39772942E-16  1.23410910E-06 -9.30838814E-17
 -8.21402016E-18 -5.93466823E-06  1.38276162E-16  1.51120069E-17  1.44964036E-05
  1.94889799E-06 -1.93031713E-16  4.85844673E-17  5.25658006E-17 -1.80121089E-16
 -6.40630537E-06  2.19989841E-16 -1.61183478E-16  1.82461495E-17  1.50477160E-16
  5.92523353E-06 -1.14870580E-16  2.03680797E-16 -2.98910016E-17 -4.17731960E-17
 -7.92454887E-17 -2.51958987E-17 -1.27346908E-05  3.22679980E-05  9.79748561E-17
 -8.74376019E-17  6.28122688E-18  3.05338237E-17 -5.08770965E-07 -1.43363448E-16
  1.73113225E-16 -2.85091048E-16  1.61144078E-16 -3.79905038E-17 -1.27213326E-16
  9.38536508E-05  1.31391711E-06  4.79596740E-06 -8.20086163E-06 -3.67064411E-06
 -1.17330004E-05  1.43658100E-17  1.76835982E-17 -1.23711316E-06  3.76312885E-18
  6.10922845E-17  5.95188537E-06  9.99956181E-18 -1.11284680E-16 -1.45381735E-05
  1.95667405E-06  4.49089388E-17 -6.85043577E-17 -3.82368421E-17 -1.95477422E-17
 -6.42309811E-06 -3.81226235E-17  9.22997227E-17  7.50691250E-17  5.83809329E-17
  5.94224330E-06 -5.87724852E-18 -5.81244152E-17 -7.00426876E-17 -7.15036183E-17
 -5.12305530E-17  1.12714920E-16  1.27734116E-05  3.23585203E-05 -5.16450874E-17
  9.36699847E-17  2.72396964E-17  3.02832856E-17  5.09716749E-07 -1.53674686E-16
  9.96555649E-17 -4.57143326E-17 -1.04598925E-16 -1.99026717E-17  1.39059962E-16
  9.97820458E-01  6.95209436E-03 -2.27343749E-03  1.47073528E-03 -4.66507089E-04
  2.20969027E-04  7.09361563E-18 -8.08823308E-18  1.92224526E-07  8.28028983E-17
 -8.87789117E-17  1.35766015E-06 -1.22395878E-16  1.29013391E-16 -4.54307309E-06
 -1.58508612E-06 -1.21872340E-16 -2.07518446E-16  2.18317232E-17 -3.10596947E-17
  5.80100173E-06 -1.32100046E-16  2.57475960E-16  3.71233962E-17 -2.81921448E-17
 -1.37370777E-05  3.30160714E-16 -1.82024687E-16 -9.19429063E-17  6.57480935E-17
  7.20553085E-17 -7.45775540E-17  1.22777896E-05  1.08886421E-05 -1.99758886E-16
  1.50294812E-16  6.17138668E-17 -2.38554823E-17  9.75114729E-08  1.37557984E-16
 -6.23118899E-17 -9.35578883E-16 -1.13764764E-15 -2.42821128E-17  1.71827996E-17
 -3.11649630E-01  1.03613204E+00  3.58838415E-02 -9.40175563E-03  2.51387343E-03
 -1.15340806E-03 -4.03807529E-16  2.31335378E-16 -7.50354398E-05  5.64760587E-17
  4.19785640E-17  2.53512933E-06 -7.48034983E-17 -2.15921349E-17 -2.22361406E-05
  5.41851271E-06 -4.76141789E-17 -2.17156021E-17 -1.41423147E-15 -4.64772583E-17
 -2.79175331E-05  8.35719045E-17  4.37165043E-17  8.63169561E-16  1.40314402E-16
  6.85392734E-05 -7.00132727E-17 -4.20182600E-17 -4.73625149E-16 -1.92831122E-16
  8.87822777E-18  8.79921556E-19  6.25778567E-05 -5.31636558E-05  4.63373553E-17
  3.09646023E-17  2.35471735E-16  1.52938451E-16 -3.22651265E-07 -1.28595604E-17
  1.44075618E-16 -8.00038301E-16 -6.00971211E-16  3.70599330E-16  8.96859991E-16
  4.23199001E-07 -9.12105684E-06 -2.52457998E-05  4.31932685E-05  1.53935652E-05
  6.19644251E-05 -5.18706899E-17  6.42445410E-16 -5.71898811E-06  1.57667603E-17
 -9.21283662E-18  2.89407674E-05 -7.81525323E-19  2.89559432E-17 -7.29439777E-05
 -9.38174188E-06  6.93532911E-17  7.15795270E-17 -1.48602694E-16 -6.02651175E-17
  3.25500980E-05 -4.39027835E-17 -2.78002056E-17  1.59004756E-16 -4.79343867E-17
 -3.36210824E-05  2.49819266E-17 -5.17981306E-17  1.30023006E-17  1.83508722E-16
 -4.71765222E-17 -2.04444892E-17  6.74004273E-05 -1.63124543E-04  1.74434798E-17
  4.45282676E-17 -6.96529275E-17 -1.15787422E-16  2.38929595E-06 -9.13775124E-17
 -2.20544275E-16  5.76913070E-18 -3.04540679E-16 -5.99701944E-16 -2.36439364E-16
 -2.62076701E-06  2.93901895E-06 -1.84416140E-05  3.24603938E-05  9.94145961E-06
  4.57499066E-05  1.26164275E-14 -4.65235479E-15  4.07713341E-06  3.07556074E-16
 -6.83352552E-17 -2.13730680E-05 -7.77432186E-17 -5.46613213E-17  5.39812611E-05
 -7.11456693E-06 -4.23326255E-17  1.16255654E-17  8.40928804E-17 -6.06439719E-17
  2.43250446E-05  6.79007671E-17 -1.81139596E-17 -9.36885923E-17  7.23514418E-17
 -2.59488513E-05 -2.04852896E-17 -2.97092849E-17  4.01769793E-17 -1.80521881E-17
  5.13386048E-17  6.98350622E-17 -5.04539234E-05 -1.18923036E-04 -4.80543731E-17
  1.30798113E-16 -7.40771577E-17 -4.25538625E-18 -1.75956871E-06  1.24913891E-16
 -8.23800536E-17  1.26158420E-16 -3.62069306E-17 -4.56988938E-16 -1.24391541E-16
 -3.12250220E-01  1.03772261E+00  3.04536052E-02 -7.75838922E-03  1.85232836E-03
 -8.48224495E-04  3.64346188E-15  3.88662682E-15  8.43195042E-05  1.33075422E-16
  4.52093152E-17  5.46367410E-06 -5.73465648E-17  5.23447461E-17  1.40005841E-05
  5.30229621E-06 -2.32199457E-16  6.41895284E-17  5.99760229E-16 -1.45556665E-16
 -2.09199576E-05  2.61990527E-16 -1.08046880E-16 -2.99511232E-16  1.85342251E-16
  5.04751310E-05 -1.57378868E-16  7.83423939E-17  2.04880540E-17 -1.65520368E-16
  4.88966034E-17 -6.29390768E-17 -4.52574713E-05 -3.86785709E-05  5.57859125E-17
  5.59756217E-17  1.06674231E-16  7.01488593E-17 -3.92732312E-07  1.19030788E-15
 -5.09980603E-16  4.94255636E-16  7.95685824E-16 -2.29761575E-16 -1.56974162E-16
 -3.20261217E-16  7.41323161E-16 -1.79909339E-15  2.23042311E-15 -3.26376120E-15
  6.04060350E-15  3.48516042E-01  9.27597215E-01  1.14661093E-11  8.82783844E-03
  2.34958434E-02  2.91387483E-13 -1.75203177E-03 -4.66314199E-03 -5.96192564E-14
  1.69079860E-16 -3.87798919E-06 -1.03215105E-05 -7.21579626E-16 -7.43868587E-18
 -7.29383463E-16  4.57847052E-06  1.21858853E-05  8.44505640E-16  3.47964894E-16
  7.01699685E-16 -1.12913209E-05 -3.00525558E-05 -2.35398730E-16 -5.83978501E-16
  5.32672401E-04  1.41774087E-03  2.02838850E-14  3.62481101E-15  5.10400289E-05
  1.35846225E-04  3.64961721E-17  2.65719984E-16  2.54681602E-16  5.81733222E-07
  1.54831931E-06  5.67962576E-16  1.59542724E-16 -2.82839125E-16  3.61689416E-16
 -9.86464232E-17 -2.28631544E-16 -1.99283106E-15  2.97013777E-15 -1.58203032E-15
 -3.88785451E-15 -6.17693694E-07 -1.64403039E-06 -1.02851027E-14 -8.79805788E-06
 -2.34165806E-05  1.08190257E-15  2.29072889E-05  6.09691801E-05 -3.26123192E-15
 -3.55331624E-16 -2.16484370E-06 -5.76186673E-06  1.16550404E-15 -6.81909147E-16
  1.35281402E-15  8.96515455E-06  2.38613188E-05 -1.28728675E-15  7.31153151E-16
 -2.50620707E-15 -3.05694057E-05 -8.13623826E-05  8.04058404E-16 -2.02475830E-16
 -3.69906190E-05 -9.84528431E-05  6.06500637E-15 -1.60380052E-15  9.77642148E-05
  2.60205564E-04 -3.24905659E-16  1.12614454E-16  5.89194506E-17 -4.96952220E-07
 -1.32266937E-06  1.30919886E-16 -3.90421399E-17  1.33880072E-16 -4.62430585E-16
  1.72832190E-16 -3.54786646E-16 -5.32558956E-16  4.77597523E-16  1.53388400E-15
 -4.84431614E-15  9.27597215E-01 -3.48516042E-01 -9.34513917E-12  2.34958434E-02
 -8.82783844E-03 -2.37957568E-13 -4.66314199E-03  1.75203177E-03  4.95246626E-14
 -2.08176338E-16 -1.03215105E-05  3.87798919E-06  9.27276163E-18  4.46673671E-16
  6.31963979E-16  1.21858853E-05 -4.57847052E-06  2.04980054E-16 -4.49247876E-16
 -3.41784397E-16 -3.00525558E-05  1.12913209E-05 -2.83761515E-16 -6.07100669E-18
  1.41774087E-03 -5.32672401E-04 -1.75939501E-14 -2.17685140E-15  1.35846225E-04
 -5.10400289E-05  9.17916097E-17  3.75565990E-17 -1.29568723E-17  1.54831931E-06
 -5.81733223E-07  4.70304204E-16 -1.20849950E-16 -2.89885244E-16  1.52811657E-16
  4.17111974E-15 -1.37545111E-14  1.52781370E-16 -1.24015691E-15 -4.31117922E-16
  5.52806309E-15 -1.64402989E-06  6.17693752E-07  1.75267400E-15 -2.34165806E-05
  8.79805788E-06 -1.47546375E-15  6.09691801E-05 -2.29072889E-05  3.26497699E-15
 -5.90177699E-17 -5.76186673E-06  2.16484370E-06  1.40387784E-16 -1.32104747E-16
 -7.22217606E-16  2.38613188E-05 -8.96515455E-06 -4.61676599E-16 -1.87418544E-16
  2.19402069E-15 -8.13623826E-05  3.05694057E-05  3.84293463E-16  4.50626498E-16
 -9.84528431E-05  3.69906190E-05 -4.90215156E-15  1.93221063E-15  2.60205564E-04
 -9.77642148E-05 -1.24693104E-16 -2.31991424E-16  6.00264568E-16 -1.32266938E-06
  4.96952220E-07  1.07276192E-16  1.74948878E-16 -3.72376377E-16 -4.34576712E-16
 -2.22692905E-05  8.02435040E-05  1.62935795E-05 -2.12646660E-05 -1.38061588E-04
  4.44854334E-04  4.71546512E-12 -1.40205950E-11  9.90894515E-01  1.19442119E-13
 -3.55115943E-13  2.51665232E-02 -2.38097084E-14  7.04198962E-14 -5.15060435E-03
 -2.28385470E-06 -1.19699556E-16  1.65282115E-16  1.50703435E-17 -5.57773679E-17
 -2.49967065E-05  1.86066405E-16 -1.38604826E-16 -1.28992860E-16  5.51910928E-17
  2.67305842E-05 -2.62419951E-16  3.88985371E-16  2.62201199E-16  6.48826534E-18
  7.30604365E-15 -2.13311641E-14  1.79176901E-03  2.71631007E-04  7.89849522E-16
 -2.01494670E-15 -2.44558983E-16 -4.65655463E-17  1.39307147E-06  2.37285517E-17
 -1.08703751E-16 -2.99974344E-16  7.22834340E-17  7.78515752E-16  5.79048055E-16
 -3.51487436E-06 -1.01106358E-05 -6.92015642E-05  1.31179835E-04 -1.79606921E-05
 -4.41093190E-04  5.02591424E-15 -2.35922934E-14  8.45747954E-06  3.13452708E-18
 -8.52133436E-17  1.06978726E-04  2.76134530E-16 -8.17833554E-16 -2.93511211E-04
 -2.56710483E-05 -8.01289356E-17  9.92741114E-17  3.98426546E-17  1.80450156E-16
  9.95925509E-05  1.90133986E-16 -3.25921019E-16  8.30684783E-17 -4.47236455E-17
 -2.08486334E-04 -5.52001348E-16  1.16125156E-15 -2.82423648E-16 -2.11717784E-16
 -5.50172871E-16  1.43627831E-15  5.39564631E-04 -1.58224913E-04  1.50729227E-15
 -3.88693735E-15  2.63874632E-16  1.37795036E-16  4.99946508E-06  5.85674503E-17
 -1.24307111E-16 -9.12643708E-18 -2.68316160E-16  3.03663455E-16  4.41583569E-17
  2.06169060E-06  5.94075974E-06  4.04880584E-05 -7.72486662E-05  1.36638355E-05
  2.53103627E-04  1.73703373E-15  9.25674229E-15 -4.21774286E-05  5.07395056E-16
  1.66175037E-15  6.03171659E-05 -1.18505227E-15 -3.82090611E-15 -1.68900314E-04
  1.47985606E-05 -1.37388607E-16 -3.86773345E-16  4.37406079E-17 -2.96490407E-17
 -5.75259557E-05  4.44428447E-16  1.49958252E-15 -8.04480446E-17  1.66426757E-16
  1.21842087E-04 -1.45381077E-15 -4.97868367E-15  5.40116312E-17 -2.90293363E-16
  1.86300219E-15  6.17299684E-15  3.12198551E-04  8.85661729E-05  4.81623379E-15
  1.60806063E-14  1.48037904E-19  1.97875977E-16  2.90446222E-06  5.53826284E-18
  2.48450517E-16 -4.11656072E-18  3.32026662E-16 -6.58214243E-17  1.72973874E-16
  2.77767678E-05 -9.47395539E-05  2.33730840E-06  6.80520090E-06  8.27355541E-05
 -2.58182765E-04 -2.96007933E-11 -9.98169531E-11  9.93450860E-01 -5.41904880E-13
 -1.82704860E-12  1.82185728E-02  1.06737907E-13  3.59749308E-13 -3.67496936E-03
  5.13558521E-06 -4.02603813E-16 -1.21484146E-15 -1.19933363E-17 -8.04860453E-17
  1.24013141E-05  4.17357671E-16  1.07806388E-15  1.23790404E-16  1.18341216E-16
 -1.36684721E-05 -6.92384478E-16 -2.00583371E-15 -1.49742419E-16 -1.00153838E-16
 -2.62196326E-14 -8.83535330E-14  1.03863540E-03 -1.58374037E-04  2.58158427E-15
  8.46927178E-15  7.89098140E-17  1.45890674E-17  1.42405851E-06 -5.22383195E-18
  4.19598393E-16  1.55564588E-16  7.15737394E-17  1.52039211E-15 -7.13097621E-16
 -1.76620475E-16  2.27045764E-16 -9.70076017E-16  2.26883053E-15 -3.40251202E-17
 -1.16032476E-14  7.25133070E-06 -6.57762929E-06 -1.75681398E-14 -1.05993555E-05
  9.61459791E-06 -3.16472355E-15  2.81309264E-05 -2.55173578E-05  7.60555947E-15
 -7.38027519E-16  2.58348502E-06 -2.34346038E-06 -3.09250144E-16  5.03873228E-17
  2.62364650E-15 -1.06503398E-05  9.66084545E-06  6.09831491E-17  2.20408139E-16
 -4.98880067E-15  3.66059983E-05 -3.32050336E-05  2.12384080E-16 -3.30532226E-16
 -4.55356844E-05  4.13050866E-05 -1.38467058E-14 -5.08966833E-15 -1.18857493E-04
  1.07814763E-04 -1.24316156E-16  2.01506925E-17 -1.49108334E-16 -6.05981335E-07
  5.49681242E-07  4.97430764E-16 -2.48799223E-16 -3.88284224E-16  1.77997253E-16
 -1.23362284E-15  4.11694857E-15 -3.04905786E-16  1.46962174E-17 -3.43332177E-15
  1.19504416E-14  7.35830260E-01 -6.67466253E-01 -4.51382433E-11  1.34694283E-02
 -1.22180201E-02 -8.27836792E-13 -2.65219699E-03  2.40578852E-03  1.66982809E-13
 -2.24714784E-16  8.61143191E-06 -7.81136697E-06  5.50642316E-16  8.44808098E-16
 -3.49991856E-16 -7.36932825E-06  6.68466382E-06 -2.97637568E-16 -8.40940455E-16
  1.14369852E-16  1.44418928E-05 -1.31001354E-05  2.55114068E-16  5.33506696E-16
  6.51180889E-04 -5.90681427E-04 -4.66303165E-14  6.98308911E-15 -6.24679364E-05
  5.66642088E-05 -1.22810089E-16 -1.58931198E-17 -6.82959559E-17  2.34241712E-07
 -2.12478946E-07 -5.35433656E-16 -2.55488463E-17  2.20776843E-16 -7.06191449E-17
  2.87339835E-16  8.00343279E-17  2.69391253E-15 -5.76718107E-15  8.54456959E-16
  2.31874264E-14  6.57762905E-06  7.25133114E-06  1.00493342E-14 -9.61459792E-06
 -1.05993555E-05  6.19196139E-15  2.55173578E-05  2.81309264E-05 -1.60471631E-14
  8.37773539E-16  2.34346038E-06  2.58348501E-06 -2.90046032E-16 -1.17727668E-16
 -5.07554928E-15 -9.66084545E-06 -1.06503398E-05  2.09051712E-16  4.40078893E-16
  1.11443772E-14  3.32050336E-05  3.66059983E-05 -2.33070600E-16 -5.41862208E-16