HF file generated by AutoMR of MOKIT
Stability RHF                                                         Gen
Number of atoms                            I                2
Info1-9                                    I   N=           9
           6           5           0           0           0         110
           7           1           2
Charge                                     I                0
Multiplicity                               I                1
Number of electrons                        I               48
Number of alpha electrons                  I               24
Number of beta electrons                   I               24
Number of basis functions                  I               90
Number of independent functions            I               90
Number of point charges in /Mol/           I                0
Number of translation vectors              I                0
Atomic numbers                             I   N=           2
          24          24
Nuclear charges                            R   N=           2
  2.40000000E+01  2.40000000E+01
Current cartesian coordinates              R   N=           6
  0.00000000E+00  0.00000000E+00  0.00000000E+00  0.00000000E+00  0.00000000E+00
  7.55890453E+00
Force Field                                I                0
Int Atom Types                             I   N=           2
           0           0
MM charges                                 R   N=           2
  0.00000000E+00  0.00000000E+00
Integer atomic weights                     I   N=           2
          52          52
Real atomic weights                        R   N=           2
  5.19405097E+01  5.19405097E+01
Atom fragment info                         I   N=           2
           1           2
Atom residue num                           I   N=           2
           0           0
Nuclear spins                              I   N=           2
           0           0
Nuclear ZEff                               R   N=           2
 -2.47200000E+01 -2.47200000E+01
Nuclear QMom                               R   N=           2
  0.00000000E+00  0.00000000E+00
Nuclear GFac                               R   N=           2
  0.00000000E+00  0.00000000E+00
MicOpt                                     I   N=           2
          -1          -1
Number of contracted shells                I               30
Number of primitive shells                 I               72
Pure/Cartesian d shells                    I                0
Pure/Cartesian f shells                    I                0
Highest angular momentum                   I                3
Largest degree of contraction              I                8
Shell types                                I   N=          30
           0           0           0           0           0           0
           1           1           1          -2          -2          -2
           1          -2          -3           0           0           0
           0           0           0           1           1           1
          -2          -2          -2           1          -2          -3
Number of primitives per shell             I   N=          30
           8           4           2           1           1           1
           6           3           1           4           1           1
           1           1           1           8           4           2
           1           1           1           6           3           1
           4           1           1           1           1           1
Shell to atom map                          I   N=          30
           1           1           1           1           1           1
           1           1           1           1           1           1
           1           1           1           2           2           2
           2           2           2           2           2           2
           2           2           2           2           2           2
Primitive exponents                        R   N=          72
  2.54477807E+05  3.81317971E+04  8.67529306E+03  2.45500998E+03  7.99162178E+02
  2.86900215E+02  1.11254132E+02  4.38641526E+01  2.79326692E+02  8.62747324E+01
  1.35557561E+01  5.69781128E+00  8.56365826E+00  1.39882968E+00  5.72881711E-01
  9.00961713E-02  3.41258851E-02  1.30643989E+03  3.09253114E+02  9.89962740E+01
  3.67569165E+01  1.45666571E+01  5.87399374E+00  2.28909997E+01  3.08550018E+00
  1.21323291E+00  4.49316807E-01  4.37200745E+01  1.23912427E+01  4.26394420E+00
  1.55252218E+00  5.37619295E-01  1.64931731E-01  1.20675000E-01  5.10000000E-02
  1.14700000E+00  2.54477807E+05  3.81317971E+04  8.67529306E+03  2.45500998E+03
  7.99162178E+02  2.86900215E+02  1.11254132E+02  4.38641526E+01  2.79326692E+02
  8.62747324E+01  1.35557561E+01  5.69781128E+00  8.56365826E+00  1.39882968E+00
  5.72881711E-01  9.00961713E-02  3.41258851E-02  1.30643989E+03  3.09253114E+02
  9.89962740E+01  3.67569165E+01  1.45666571E+01  5.87399374E+00  2.28909997E+01
  3.08550018E+00  1.21323291E+00  4.49316807E-01  4.37200745E+01  1.23912427E+01
  4.26394420E+00  1.55252218E+00  5.37619295E-01  1.64931731E-01  1.20675000E-01
  5.10000000E-02  1.14700000E+00
Contraction coefficients                   R   N=          72
  2.42904776E-04  1.88435236E-03  9.80095844E-03  3.98250087E-02  1.29405437E-01
  3.06290018E-01  4.34628350E-01  2.24695629E-01 -2.43633579E-02 -1.15114954E-01
  5.50922663E-01  5.36113547E-01 -3.71230177E-01  1.16811695E+00  1.00000000E+00
  1.00000000E+00  1.00000000E+00  2.82928007E-03  2.27766292E-02  1.05645619E-01
  2.99499449E-01  4.77062454E-01  2.76542344E-01 -1.94121061E-02  3.86188758E-01
  6.76239089E-01  1.00000000E+00  2.20932593E-02  1.28014388E-01  3.86529103E-01
  6.41033014E-01  1.00000000E+00  1.00000000E+00  1.00000000E+00  1.00000000E+00
  1.00000000E+00  2.42904776E-04  1.88435236E-03  9.80095844E-03  3.98250087E-02
  1.29405437E-01  3.06290018E-01  4.34628350E-01  2.24695629E-01 -2.43633579E-02
 -1.15114954E-01  5.50922663E-01  5.36113547E-01 -3.71230177E-01  1.16811695E+00
  1.00000000E+00  1.00000000E+00  1.00000000E+00  2.82928007E-03  2.27766292E-02
  1.05645619E-01  2.99499449E-01  4.77062454E-01  2.76542344E-01 -1.94121061E-02
  3.86188758E-01  6.76239089E-01  1.00000000E+00  2.20932593E-02  1.28014388E-01
  3.86529103E-01  6.41033014E-01  1.00000000E+00  1.00000000E+00  1.00000000E+00
  1.00000000E+00  1.00000000E+00
Coordinates of each shell                  R   N=          90
  0.00000000E+00  0.00000000E+00  0.00000000E+00  0.00000000E+00  0.00000000E+00
  0.00000000E+00  0.00000000E+00  0.00000000E+00  0.00000000E+00  0.00000000E+00
  0.00000000E+00  0.00000000E+00  0.00000000E+00  0.00000000E+00  0.00000000E+00
  0.00000000E+00  0.00000000E+00  0.00000000E+00  0.00000000E+00  0.00000000E+00
  0.00000000E+00  0.00000000E+00  0.00000000E+00  0.00000000E+00  0.00000000E+00
  0.00000000E+00  0.00000000E+00  0.00000000E+00  0.00000000E+00  0.00000000E+00
  0.00000000E+00  0.00000000E+00  0.00000000E+00  0.00000000E+00  0.00000000E+00
  0.00000000E+00  0.00000000E+00  0.00000000E+00  0.00000000E+00  0.00000000E+00
  0.00000000E+00  0.00000000E+00  0.00000000E+00  0.00000000E+00  0.00000000E+00
  0.00000000E+00  0.00000000E+00  7.55890453E+00  0.00000000E+00  0.00000000E+00
  7.55890453E+00  0.00000000E+00  0.00000000E+00  7.55890453E+00  0.00000000E+00
  0.00000000E+00  7.55890453E+00  0.00000000E+00  0.00000000E+00  7.55890453E+00
  0.00000000E+00  0.00000000E+00  7.55890453E+00  0.00000000E+00  0.00000000E+00
  7.55890453E+00  0.00000000E+00  0.00000000E+00  7.55890453E+00  0.00000000E+00
  0.00000000E+00  7.55890453E+00  0.00000000E+00  0.00000000E+00  7.55890453E+00
  0.00000000E+00  0.00000000E+00  7.55890453E+00  0.00000000E+00  0.00000000E+00
  7.55890453E+00  0.00000000E+00  0.00000000E+00  7.55890453E+00  0.00000000E+00
  0.00000000E+00  7.55890453E+00  0.00000000E+00  0.00000000E+00  7.55890453E+00
Constraint Structure                       R   N=           6
  0.00000000E+00  0.00000000E+00  0.00000000E+00  0.00000000E+00  0.00000000E+00
  7.55890453E+00
Num ILSW                                   I              100
ILSW                                       I   N=         100
           0           0           0           0           2           1
           0           0           0           0           0          -1
           0           0           0           0           0           0
           0           0           0           0           0           0
           1           1           0           0           0           0
           0           0      100000           0          -1           0
           0           0           0           0           0           0
           0           0           0           1           0           0
           0           0           1           0           0           0
           0           0           4          40           0           0
           0           0           0           0           0           0
           0           0           0           0           0           0
           0           0           0           0           0           0
           0           0           0           0           0           0
           0           0           0           0           0           0
           0           0           0           0           0           0
           0           0           0           0
Num RLSW                                   I               40
RLSW                                       R   N=          40
  1.00000000E+00  1.00000000E+00  1.00000000E+00  1.00000000E+00  1.00000000E+00
  0.00000000E+00  0.00000000E+00  1.00000000E+00  0.00000000E+00  0.00000000E+00
  0.00000000E+00  0.00000000E+00  1.00000000E+00  0.00000000E+00  0.00000000E+00
  0.00000000E+00  0.00000000E+00  1.00000000E+00  0.00000000E+00  0.00000000E+00
  0.00000000E+00  0.00000000E+00  1.00000000E+00  0.00000000E+00  0.00000000E+00
  0.00000000E+00  0.00000000E+00  1.00000000E+00  0.00000000E+00  0.00000000E+00
  0.00000000E+00  0.00000000E+00  1.00000000E+00  0.00000000E+00  0.00000000E+00
  0.00000000E+00  0.00000000E+00  0.00000000E+00  1.00000000E+00  1.00000000E+00
ECP-MxAtEC                                 I           250000
ECP-MaxLECP                                I               10
ECP-MaxAtL                                 I          2250000
ECP-MxTECP                                 I         11250000
ECP-LenNCZ                                 I                0
ECP-KFirst                                 I   N=          20
           0           0           0           0           0           0
           0           0           0           0           0           0
           0           0           0           0           0           0
           0           0
ECP-KLast                                  I   N=          20
           0           0           0           0           0           0
           0           0           0           0           0           0
           0           0           0           0           0           0
           0           0
ECP-LMax                                   I   N=           2
           0           0
ECP-LPSkip                                 I   N=           2
           1           1
ECP-RNFroz                                 R   N=           2
  0.00000000E+00  0.00000000E+00
ECP-NLP                                    I                0
ECP-CLP1                                   R      0.000000000000000E+00
ECP-CLP2                                   R      0.000000000000000E+00
ECP-ZLP                                    R      0.000000000000000E+00
MxBond                                     I                1
NBond                                      I   N=           2
           0           0
IBond                                      I   N=           2
           0           0
RBond                                      R   N=           2
  0.00000000E+00  0.00000000E+00
Virial Ratio                               R      2.000025260610248E+00
SCF Energy                                 R     -2.086670643535291E+03
Total Energy                               R     -2.086670643535291E+03
S**2                                       R      5.898514692580772E+00
S**2 after annihilation                    R      1.824398861277341E+01
RMS Density                                R      1.915880506482937E-09
External E-field                           R   N=          35
  0.00000000E+00  0.00000000E+00  0.00000000E+00  0.00000000E+00  0.00000000E+00
  0.00000000E+00  0.00000000E+00  0.00000000E+00  0.00000000E+00  0.00000000E+00
  0.00000000E+00  0.00000000E+00  0.00000000E+00  0.00000000E+00  0.00000000E+00
  0.00000000E+00  0.00000000E+00  0.00000000E+00  0.00000000E+00  0.00000000E+00
  0.00000000E+00  0.00000000E+00  0.00000000E+00  0.00000000E+00  0.00000000E+00
  0.00000000E+00  0.00000000E+00  0.00000000E+00  0.00000000E+00  0.00000000E+00
  0.00000000E+00  0.00000000E+00  0.00000000E+00  0.00000000E+00  0.00000000E+00
IOpCl                                      I                0
IROHF                                      I                0
Alpha Orbital Energies                     R   N=          90
  2.00000000E+00  2.00000000E+00  1.99999999E+00  1.99999999E+00  1.99999919E+00
  1.99999915E+00  1.99999904E+00  1.99999872E+00  1.99999872E+00  1.99999868E+00
  1.99999868E+00  1.99999868E+00  1.99999537E+00  1.99999418E+00  1.99999418E+00
  1.99999368E+00  1.99999368E+00  1.99999298E+00  1.31799104E+00  1.01235188E+00
  1.01217031E+00  1.01217031E+00  1.00205274E+00  1.00205274E+00  9.97947258E-01
  9.97947258E-01  9.87829686E-01  9.87829686E-01  9.87648121E-01  6.82008964E-01
  0.00000000E+00  0.00000000E+00  0.00000000E+00  0.00000000E+00  0.00000000E+00
  0.00000000E+00  0.00000000E+00  0.00000000E+00  0.00000000E+00  0.00000000E+00
  0.00000000E+00  0.00000000E+00  0.00000000E+00  0.00000000E+00  0.00000000E+00
  0.00000000E+00  0.00000000E+00  0.00000000E+00  0.00000000E+00  0.00000000E+00
  0.00000000E+00  0.00000000E+00  0.00000000E+00  0.00000000E+00  0.00000000E+00
  0.00000000E+00  0.00000000E+00  0.00000000E+00  0.00000000E+00  0.00000000E+00
  0.00000000E+00  0.00000000E+00  0.00000000E+00  0.00000000E+00  0.00000000E+00
  0.00000000E+00  0.00000000E+00  0.00000000E+00  0.00000000E+00  0.00000000E+00
  0.00000000E+00  0.00000000E+00  0.00000000E+00  0.00000000E+00  0.00000000E+00
  0.00000000E+00  0.00000000E+00  0.00000000E+00  0.00000000E+00  0.00000000E+00
  0.00000000E+00  0.00000000E+00  0.00000000E+00  0.00000000E+00  0.00000000E+00
  0.00000000E+00  0.00000000E+00  0.00000000E+00  0.00000000E+00  0.00000000E+00
Alpha MO coefficients                      R   N=        8100
 -9.98295462E-01 -5.33154639E-03  1.97306243E-03 -1.73272728E-03  4.60836437E-04
 -2.19225084E-04  9.74923427E-11 -8.94611775E-13  5.28260710E-06 -5.08389243E-11
 -2.49514539E-11  4.04830006E-06 -1.64667268E-11 -7.47688201E-12 -3.66607648E-06
  1.55769765E-06  1.04831674E-14  8.44052961E-15 -3.00982945E-18  1.39109206E-18
 -5.76181097E-06  2.09829489E-14  1.56934717E-14 -2.06569763E-18  8.70709799E-19
  1.37117388E-05  7.80075611E-16 -1.13347039E-14 -1.10736408E-18  5.22466958E-19
 -4.27684344E-13 -2.54326748E-13  1.22529218E-05 -1.08721748E-05  1.65393852E-14
  4.72714680E-14 -1.14716364E-19  4.29257409E-20  8.74128764E-08  1.92321102E-16
  2.52934728E-16 -9.40013262E-21  9.50221109E-21 -6.09856919E-20  3.01194342E-20
 -9.57565121E-05  6.03026276E-06 -1.11025690E-05  3.36999757E-06  3.58807980E-06
  1.16990659E-05  5.26955305E-11 -1.74151443E-10  1.95707845E-05 -6.98683188E-12
  4.52937850E-11 -5.78854433E-06 -2.62103292E-12  1.55216588E-11 -1.82821436E-05
 -1.95487316E-06 -2.94159317E-15  1.44839351E-14 -2.65626206E-22  2.04278529E-22
  6.40084347E-06  1.84732857E-15  1.86853226E-14 -3.75065727E-21 -1.26169102E-22
 -5.86924591E-06 -1.69127645E-14 -7.97603687E-15  6.69550080E-22  1.87888688E-22
 -1.73052119E-14  1.16988687E-13  1.26112787E-05 -3.22480027E-05  5.02547789E-14
  3.14704502E-14 -2.52901765E-21  1.34709544E-21  5.08509797E-07 -1.25687126E-16
 -1.87712946E-16 -1.29800665E-21 -1.93548713E-22  7.83490168E-23  6.40392043E-22
  9.13748479E-05  7.02149569E-06 -1.14538906E-05  3.69737338E-06  3.50713825E-06
  1.17506675E-05 -3.76538683E-11 -1.54053141E-10 -1.95729101E-05  1.18093117E-11
  3.13198665E-11  5.79000969E-06  4.01494524E-12  1.13320359E-11  1.82737020E-05
 -1.95603041E-06 -2.32139423E-15 -5.84870365E-15 -4.73659268E-17 -9.30569357E-18
  6.40672263E-06 -5.41441027E-15 -1.56058957E-14 -3.16820088E-17 -6.26338863E-18
 -5.88476735E-06  9.60605713E-16  4.29129121E-15 -1.79838038E-17 -3.55958585E-18
  7.96986915E-14  1.43289341E-13 -1.25959158E-05 -3.22224110E-05 -8.26279391E-15
 -3.01971020E-14 -1.67971044E-18 -3.32284753E-19 -5.10243389E-07 -8.13205375E-17
 -3.08381236E-16  4.53206414E-21  5.96631951E-21  4.81426967E-21 -3.75526443E-21
 -9.98295462E-01 -5.33153937E-03  1.97307310E-03 -1.73277307E-03  4.60912804E-04
 -2.19305901E-04 -9.06867672E-13 -2.28708374E-12 -5.28733904E-06  7.21652951E-13
  1.93499790E-12 -4.04580691E-06  2.26271306E-13  6.01400626E-13  3.66398710E-06
  1.59481468E-06  5.30420066E-16  1.75659993E-15 -4.44004344E-19 -1.58950537E-20
 -5.79205236E-06 -1.30805862E-15 -4.92191079E-15  7.82339258E-20 -1.43998894E-20
  1.36922096E-05  5.53971008E-15  1.96902868E-14 -7.49333297E-20  2.11951437E-21
  9.41254687E-15  3.11371597E-14 -1.22401545E-05 -1.08516746E-05 -1.71333592E-14
 -6.13708902E-14 -7.20388752E-21 -7.61628452E-21 -9.75315089E-08  5.72409129E-17
  2.29508086E-16 -2.36186726E-22  2.13914311E-21  1.48136354E-20  1.69573978E-20
  6.30798236E-02 -2.61280061E-01  4.48872634E-01  3.30195662E-01  1.03951696E-02
 -3.31682712E-03 -3.19842122E-11  2.78484553E-11 -1.99627754E-02  1.39010395E-11
 -8.29597461E-12  1.51594771E-03  4.57982927E-12 -2.84074034E-12  6.39122203E-04
  3.24052481E-05 -4.78444779E-15  1.70427539E-15 -4.25732756E-17  2.63744368E-17
 -2.20640372E-05 -1.14578446E-14  4.97792850E-15 -7.10888623E-17  5.63443199E-17
  3.81356519E-06  1.25600763E-14 -3.96067660E-15 -8.54917144E-17  3.70299454E-17
  9.42550275E-14 -5.02521084E-14 -4.31231765E-05 -4.69580135E-04 -4.88369860E-14
  1.67933377E-14 -2.81983016E-18  4.18909148E-18 -8.87177993E-06 -3.49135438E-16
  6.27973820E-17  1.20968544E-17 -8.40849482E-18 -1.73433311E-17  6.96691660E-18
  6.30817711E-02 -2.61270304E-01  4.48919311E-01  3.30087233E-01  1.06186372E-02
 -3.50550989E-03  1.91225833E-10 -5.79936321E-11  1.99631853E-02 -3.20519646E-11
  3.23187348E-12 -1.51820949E-03 -1.16138234E-11  1.53052812E-12 -6.30402246E-04
 -1.61211081E-05 -9.70249866E-15  5.73272198E-16 -1.90970729E-17 -3.33490803E-19
 -1.01429439E-06 -1.50097436E-14  3.11261185E-15  1.90045796E-16  1.40725380E-17
  3.75034928E-05  9.32361715E-15 -5.19032957E-15 -4.85546731E-17 -2.62549203E-18
 -2.67009351E-14 -3.13217080E-14  2.56186426E-05 -4.22079707E-04 -3.57497890E-14
  1.78059605E-14  1.45060570E-17  1.02378079E-18  3.31536123E-06  1.29144277E-16
 -4.09487887E-17  1.15653692E-18  1.97656865E-18  6.12469781E-20 -2.81763507E-17
  6.38367538E-02 -2.63700843E-01  4.48673371E-01  3.29802157E-01  1.04434622E-02
 -3.70273886E-03 -5.27517632E-11  4.67799750E-11 -3.47102024E-02  1.69074467E-11
 -1.28527985E-11  4.58117383E-03  5.74050230E-12 -4.44850702E-12  1.39918099E-03
  5.60881413E-05 -4.75694902E-15  3.49387992E-15  1.39477549E-16 -8.64378120E-17
 -1.55318485E-04 -1.17005886E-14  8.99272706E-15  5.60498262E-17 -1.21150719E-16
  2.42128377E-04  1.01665655E-14 -7.91104076E-15 -1.83079156E-17 -7.50273907E-17
  1.04452533E-13 -7.08892261E-14  3.67727674E-04  3.21684763E-04 -4.22279112E-14
  3.29887861E-14  8.16093597E-18 -7.49458006E-18 -3.11094512E-06 -3.38863234E-16
  1.63441783E-16 -2.59764546E-17 -1.84427497E-18 -4.60304848E-18 -3.58859965E-18
 -6.38385847E-02  2.63689110E-01 -4.48722431E-01 -3.29680890E-01 -1.07155015E-02
  3.88337951E-03  1.42626119E-10 -1.15123130E-10 -3.47101547E-02 -2.31958176E-11
  1.30035327E-11  4.58066579E-03 -8.44589381E-12  5.06114509E-12  1.40100008E-03
 -9.10906514E-06 -6.76019602E-15  3.49229451E-15  1.96220752E-17  2.55237942E-19
  1.16600813E-04 -1.20475550E-14  7.93292521E-15 -1.89269297E-16 -1.40957048E-17
 -2.89055608E-04  1.07777473E-14 -8.92014674E-15  4.71149805E-17  2.65630529E-18
 -1.16398457E-14 -2.34051550E-14  3.86359835E-04 -2.22903544E-04 -3.85419282E-14
  3.14692027E-14 -1.27918533E-17 -9.54803144E-19  5.42808624E-06  2.67629573E-16
 -1.79725596E-16 -8.02389256E-19 -1.90110599E-18 -1.18123491E-19  2.79996085E-17
 -1.95958860E-01  6.58198119E-01 -1.17285263E-02 -3.09001644E-02  1.12311010E-03
 -2.48861429E-04  3.51336387E-11  3.66196248E-11 -3.62715982E-01 -1.76555689E-12
 -7.33322833E-12  1.48071375E-01 -9.75525859E-13 -2.65117097E-12  4.89296214E-02
 -1.44505372E-05  7.65009492E-16 -8.43466197E-16 -3.77402737E-18 -6.05456460E-18
 -6.74384729E-05  3.19614458E-15 -1.71595640E-15  1.88435644E-17 -1.24314291E-18
  1.34840194E-04 -4.93962722E-15  1.05677572E-14  1.42080562E-17  4.24901618E-18
  2.99632302E-14 -4.74712817E-14  1.19709633E-03 -1.49913994E-04  1.90241020E-14
 -3.31190716E-14  2.08798163E-18  9.32343379E-19 -5.50507268E-06  1.35482976E-16
 -1.29866473E-16  2.67242536E-17 -3.36732767E-18 -5.88127987E-18  6.80311008E-18
 -1.96077069E-01  6.58131865E-01 -1.35608877E-02 -2.86889195E-02  3.77418289E-04
 -4.06927986E-05 -6.10659929E-11  1.83043199E-10  3.62791478E-01  1.12567633E-11
 -3.66909598E-11 -1.48322161E-01  4.02396927E-12 -1.29559636E-11 -4.88022331E-02
 -3.89399414E-05  3.16943451E-15 -1.18330810E-14  1.55849030E-18  1.29248205E-18
 -1.12247505E-04  5.64156998E-15 -1.35428094E-14 -1.97471736E-17 -3.05156521E-18
  1.45043154E-04 -4.79944396E-15 -8.98254570E-16  6.35083169E-18  1.63845646E-18
  1.20121346E-14 -7.03308117E-14 -8.23335346E-04 -4.62168957E-05  1.74099541E-14
 -4.09722170E-15 -2.43220266E-18 -7.77913917E-19 -2.59262547E-06 -9.78734974E-17
  1.01559975E-16 -1.72115177E-17 -1.52507014E-18  1.39512500E-18  4.72300992E-18
  2.22442554E-01 -7.45964370E-01  3.13642666E-03  2.75342209E-02 -1.24117336E-03
  3.76749175E-04 -7.97287571E-11  4.34388837E-11 -8.72322277E-02  2.18529444E-11
 -6.63389655E-12  3.11756654E-02  7.55743260E-12 -2.54058751E-12  1.05233483E-02
 -2.17026798E-05 -4.46607087E-15  2.09842161E-15  1.56349942E-17  3.04830715E-18
  2.83258725E-05 -1.08527259E-14  5.84532861E-15 -1.16213957E-18 -3.72192652E-18
 -7.44582752E-05  3.40629229E-15 -6.24782643E-15  1.70761336E-18 -2.32902393E-18
  1.33181817E-13 -1.04782187E-14  7.64175041E-05 -8.41366455E-05 -2.13662948E-14
  2.53637540E-14 -2.85518204E-19 -3.16678238E-19 -3.02186858E-06 -1.94395081E-16
  1.71229727E-16 -4.01808948E-18  3.70404006E-19  3.50848057E-18 -2.57519350E-18
 -2.22581271E-01  7.45907250E-01 -5.24723033E-03 -2.50997791E-02  6.49920083E-04
 -3.13555018E-04  2.06362928E-11 -7.83843702E-11 -8.72509519E-02 -1.68038347E-12
  1.49403231E-11  3.12359720E-02 -7.14304346E-13  5.31627196E-12  1.05042371E-02
  2.52093975E-05  1.59063881E-16  4.39054036E-15 -1.58472325E-18  7.59780327E-19
 -3.52700583E-05 -4.02410851E-15  7.59565218E-15 -7.54696288E-18 -7.27997974E-19
  7.19621835E-05  1.16308913E-14 -6.79239498E-15  9.95175617E-19  1.28693556E-19
  1.88558779E-14  1.76724872E-14 -3.97421977E-05  1.19485123E-04 -3.68259523E-14
  2.42003780E-14 -1.26897312E-19 -4.87673464E-20 -1.67156671E-06  1.39145469E-16
 -1.33342011E-16  3.70297355E-18  2.53566243E-19  6.16529391E-19  1.46856649E-18
 -1.09510266E-01  3.66281590E-01  6.39830762E-03 -7.49552993E-03  5.60220935E-04
 -2.52479056E-04  2.16434141E-11 -1.52341706E-10  6.43821660E-01 -4.78381250E-13
  3.35792884E-11 -2.32178622E-01 -4.11396052E-13  1.19762663E-11 -7.76122866E-02
  2.95152836E-05 -1.45867309E-15 -3.36787843E-15  1.02437561E-17  5.12062148E-18
  1.16743179E-04 -2.61620986E-15 -9.50487825E-15  1.24693933E-18 -3.75401105E-18
 -1.57252173E-04  6.10775674E-15 -1.04255395E-14 -8.71865744E-18 -1.14932909E-17
  1.34540419E-14  1.88181834E-13 -1.75868052E-03  8.21127577E-05 -2.04507113E-14
  2.05387964E-14 -4.07080285E-19 -1.77550937E-18  7.05163823E-06 -8.70478890E-17
 -4.84691345E-17 -4.50170032E-17  6.65709534E-18  7.91682025E-18 -9.46830779E-18
 -1.09584222E-01  3.66268739E-01  5.30680323E-03 -6.33486783E-03  5.45365810E-04
 -5.37893158E-04  1.05902192E-10 -2.29869096E-10 -6.43990257E-01 -2.28534897E-11
  5.00558863E-11  2.32761313E-01 -7.99537244E-12  1.74825515E-11  7.71668847E-02
  5.89809243E-05 -7.19980655E-15  1.69927393E-14 -5.00849684E-18 -3.50401255E-19
  2.00425454E-04 -8.48869657E-15  1.43118047E-14  1.09545257E-17  2.73578684E-18
 -2.18711731E-04  1.00980229E-16  1.52270079E-14 -5.09996705E-18 -2.08058819E-18
 -4.93642575E-14  1.26477225E-13  1.27642169E-03 -1.38149322E-04 -4.33601830E-15
 -3.85943944E-14  2.14787752E-18  1.02133199E-18  6.37346663E-06  6.53787560E-17
  2.31987242E-17  2.72518643E-17  2.25887188E-18 -7.28374246E-19 -3.27819325E-18
  9.03274686E-11  1.63680252E-12 -6.32768705E-12 -4.38584129E-12 -1.06135055E-13
  3.49793866E-13 -1.77782593E-01 -7.24814468E-01  8.50176379E-11  4.19008024E-02
  1.70828354E-01  2.55857353E-11  1.47942196E-02  6.03156037E-02  6.44791446E-12
  2.72643742E-14 -5.66736865E-06 -2.31056976E-05  2.99614728E-16 -8.79396651E-18
 -3.95260594E-14 -1.48131719E-05 -6.03928722E-05 -1.08801229E-16 -1.43876003E-17
  1.07809127E-13 -6.62266291E-06 -2.70004033E-05  5.71784863E-17  1.01180954E-16
  2.41702831E-04  9.85415420E-04  6.27147756E-13  1.01427886E-13  3.80993100E-06
  1.55329742E-05  2.24935350E-16 -8.23665098E-17  1.17164817E-15 -1.57211916E-07
 -6.40948436E-07 -1.49943209E-17  1.19208640E-17  8.68244782E-17 -1.31121769E-16
  1.04071303E-10  1.24589687E-11  4.65313367E-12  3.28714646E-12  8.77968807E-14
 -1.92894128E-13 -1.77850247E-01 -7.25090277E-01  4.82032731E-10  4.21417149E-02
  1.71810543E-01 -1.13694990E-10  1.45689907E-02  5.93973504E-02 -3.94455408E-11
 -4.55965563E-14  1.47843059E-05  6.02751846E-05  5.67813193E-17  8.12102169E-17
 -3.66269175E-14  9.87272656E-06  4.02508178E-05  2.49495201E-17  1.31817229E-16
 -1.24566602E-14  2.01027205E-05  8.19582078E-05 -2.49751428E-17 -4.16838183E-17
  1.26350429E-04  5.15127018E-04 -1.56247977E-13 -9.05400985E-14 -5.55603289E-05
 -2.26517849E-04  1.53556769E-17  1.97256489E-17 -7.13272018E-16  1.02663529E-07
  4.18556244E-07 -4.05102329E-17 -7.28565686E-18  9.12384695E-18 -5.37448829E-17
  1.26272318E-10  5.34729590E-12 -8.21255903E-11 -5.85946188E-11 -1.98376589E-12
  6.74477103E-13  7.24814457E-01 -1.77782590E-01 -1.16444891E-10 -1.70828352E-01
  4.19008018E-02  4.45402103E-11 -6.03156028E-02  1.47942194E-02  1.48423986E-11
 -1.80900142E-14  2.31056970E-05 -5.66736851E-06 -7.68287179E-17 -1.34860543E-16
  2.78178989E-18  6.03928706E-05 -1.48131715E-05  3.85451307E-16 -1.22923595E-16
  7.45442575E-16  2.70004044E-05 -6.62266319E-06 -1.38900657E-16 -6.30934762E-17
 -9.85415410E-04  2.41702829E-04  3.10123259E-13  4.92717946E-15 -1.55329791E-05
  3.80993225E-06  1.94610750E-16  3.00135387E-16 -4.69338230E-16  6.40948399E-07
 -1.57211907E-07  6.78220817E-17  9.09796749E-18 -1.46072295E-17 -3.18587087E-17
 -3.79095103E-12  1.48023255E-11 -1.90098138E-11 -1.41516327E-11 -4.49100398E-13
  1.87729354E-13  7.25090288E-01 -1.77850250E-01  1.01938920E-10 -1.71810546E-01
  4.21417156E-02 -4.04842939E-11 -5.93973512E-02  1.45689909E-02 -1.32987308E-11
 -5.97634276E-15 -6.02751852E-05  1.47843061E-05 -5.22826039E-16  2.06004690E-18
 -4.26484122E-14 -4.02508192E-05  9.87272694E-06  2.48287150E-16  1.82737722E-16
  5.81508458E-14 -8.19582061E-05  2.01027200E-05 -1.84861991E-16 -6.04137987E-17
 -5.15127021E-04  1.26350430E-04 -2.78197457E-13  9.09546303E-14  2.26517843E-04
 -5.55603274E-05  9.42840981E-17 -1.81588330E-17 -1.83902566E-15 -4.18556216E-07
  1.02663522E-07 -5.10850575E-17  7.16385112E-18 -1.03749593E-16 -1.13600075E-16
  2.88795656E-02 -9.91405836E-02  2.14934814E-02  1.87414544E-02  3.56720682E-04
  6.51273925E-04  1.45002241E-08  6.04344032E-09  7.38418868E-01 -3.04682273E-09
 -1.27163597E-09 -1.45819586E-01 -1.09698920E-09 -4.57712970E-10 -5.33793518E-02
  1.13912159E-04  7.59125699E-13  3.09795225E-13 -3.81473852E-18 -5.30938105E-17
 -1.78957310E-05  1.95305116E-12  7.99156655E-13 -1.98903137E-17 -3.60811564E-17
  1.73422909E-04 -1.35301553E-12 -5.31653341E-13 -1.46053927E-17 -1.87980338E-17
 -1.33522108E-11 -5.62468418E-12  2.10938623E-06  4.09593735E-04  6.17069583E-12
  2.45961691E-12 -1.86635937E-18 -2.07588863E-18  9.93096622E-06  4.63233698E-14
  1.87216593E-14  1.19083241E-17 -2.99993017E-18 -9.18713985E-18  5.64734626E-18
 -2.89019133E-02  9.91407201E-02 -2.18154329E-02 -1.84178565E-02 -4.04410749E-04
 -5.79889163E-04 -1.43575396E-08 -5.49756397E-09  7.38713955E-01  3.03804475E-09
  1.15009484E-09 -1.46873594E-01  1.06700512E-09  4.04555926E-10 -5.23681789E-02
 -8.75758554E-05  8.59150481E-13  3.20963490E-13  1.47027064E-18  7.87133112E-19
  5.84770849E-05  1.75111785E-12  6.84316994E-13 -1.88787611E-17 -2.05197678E-18
 -2.40553910E-04 -2.17303331E-12 -8.95878447E-13  8.10588817E-18  6.62746786E-19
  3.93494383E-12  1.36111065E-12  4.62552557E-04 -3.34670645E-04  7.34172885E-12
  3.00964186E-12 -2.51171680E-18 -1.89159455E-19  2.65466256E-06 -3.50988986E-14
 -1.41617635E-14 -1.80779012E-17 -1.62987706E-18  9.19782932E-19  4.13944904E-18
  4.58134767E-10 -1.91158520E-09  3.76714776E-10  3.34034744E-10  6.00492779E-12
  1.28240827E-11 -5.33391396E-01 -5.20249561E-01  1.42347122E-08  1.12059780E-01
  1.09298822E-01 -2.80478016E-09  4.03477680E-02  3.93536692E-02 -1.02712927E-09
  2.19213576E-12 -2.79809191E-05 -2.72915180E-05 -2.16310533E-16  1.09336621E-16
 -3.44832402E-13 -7.19944545E-05 -7.02206367E-05  2.87032714E-16 -2.05477731E-16
  3.34066721E-12  5.01170394E-05  4.88822434E-05 -1.07954338E-16  2.12380381E-16
  4.90536393E-04  4.78450428E-04  9.73645890E-14  7.91856100E-12 -2.28184403E-04