[Molden Format]
[N_ATOMS]
                    2
[ATOMS] (AU)
CR1         1     24           0.00000000      0.00000000      0.00000000
CR2         2     24           0.00000000      0.00000000      7.55890454
[5D]
[7F]
[CHARGE] (MULLIKEN)
   1.1389103704573245E-007
  -1.1389207088541298E-007
[GTO] (AU)
   1
   s   8
  0.254477807E+06  0.242904776E-03
  0.381317971E+05  0.188435236E-02
  0.867529306E+04  0.980095844E-02
  0.245500998E+04  0.398250087E-01
  0.799162178E+03  0.129405437E+00
  0.286900215E+03  0.306290018E+00
  0.111254132E+03  0.434628350E+00
  0.438641526E+02  0.224695629E+00
   s   4
  0.279326692E+03 -0.243633579E-01
  0.862747324E+02 -0.115114954E+00
  0.135557561E+02  0.550922663E+00
  0.569781128E+01  0.536113547E+00
   s   2
  0.856365826E+01 -0.371230176E+00
  0.139882968E+01  0.116811695E+01
   s   1
  0.572881711E+00  0.100000000E+01
   s   1
  0.900961713E-01  0.100000000E+01
   s   1
  0.341258851E-01  0.100000000E+01
   p   6
  0.130643989E+04  0.282928007E-02
  0.309253114E+03  0.227766292E-01
  0.989962740E+02  0.105645619E+00
  0.367569165E+02  0.299499449E+00
  0.145666571E+02  0.477062454E+00
  0.587399374E+01  0.276542344E+00
   p   3
  0.228909997E+02 -0.194121061E-01
  0.308550018E+01  0.386188758E+00
  0.121323291E+01  0.676239089E+00
   p   1
  0.449316807E+00  0.100000000E+01
   p   1
  0.120675000E+00  0.100000000E+01
   d   4
  0.437200745E+02  0.220932593E-01
  0.123912427E+02  0.128014388E+00
  0.426394420E+01  0.386529103E+00
  0.155252218E+01  0.641033014E+00
   d   1
  0.537619295E+00  0.100000000E+01
   d   1
  0.164931731E+00  0.100000000E+01
   d   1
  0.510000000E-01  0.100000000E+01
   f   1
  0.114700000E+01  0.100000000E+01
 
   2
   s   8
  0.254477807E+06  0.242904776E-03
  0.381317971E+05  0.188435236E-02
  0.867529306E+04  0.980095844E-02
  0.245500998E+04  0.398250087E-01
  0.799162178E+03  0.129405437E+00
  0.286900215E+03  0.306290018E+00
  0.111254132E+03  0.434628350E+00
  0.438641526E+02  0.224695629E+00
   s   4
  0.279326692E+03 -0.243633579E-01
  0.862747324E+02 -0.115114954E+00
  0.135557561E+02  0.550922663E+00
  0.569781128E+01  0.536113547E+00
   s   2
  0.856365826E+01 -0.371230176E+00
  0.139882968E+01  0.116811695E+01
   s   1
  0.572881711E+00  0.100000000E+01
   s   1
  0.900961713E-01  0.100000000E+01
   s   1
  0.341258851E-01  0.100000000E+01
   p   6
  0.130643989E+04  0.282928007E-02
  0.309253114E+03  0.227766292E-01
  0.989962740E+02  0.105645619E+00
  0.367569165E+02  0.299499449E+00
  0.145666571E+02  0.477062454E+00
  0.587399374E+01  0.276542344E+00
   p   3
  0.228909997E+02 -0.194121061E-01
  0.308550018E+01  0.386188758E+00
  0.121323291E+01  0.676239089E+00
   p   1
  0.449316807E+00  0.100000000E+01
   p   1
  0.120675000E+00  0.100000000E+01
   d   4
  0.437200745E+02  0.220932593E-01
  0.123912427E+02  0.128014388E+00
  0.426394420E+01  0.386529103E+00
  0.155252218E+01  0.641033014E+00
   d   1
  0.537619295E+00  0.100000000E+01
   d   1
  0.164931731E+00  0.100000000E+01
   d   1
  0.510000000E-01  0.100000000E+01
   f   1
  0.114700000E+01  0.100000000E+01
 
[MO]
Sym=     1a  
Ene=  -220.3900
Spin= Alpha
Occup=    2.00000
   1         0.72812030
   2         0.00507987
   3        -0.00165984
   4         0.00107766
   5        -0.00033743
   6         0.00016911
   7        -0.00000000
   8        -0.00000000
   9         0.00000044
  10        -0.00000000
  11         0.00000000
  12        -0.00000499
  13         0.00000000
  14         0.00000000
  15         0.00001319
  16        -0.00000000
  17        -0.00000000
  18        -0.00001764
  19        -0.00000249
  20        -0.00000000
  21        -0.00000000
  22         0.00000000
  23        -0.00000000
  24         0.00000861
  25         0.00000000
  26         0.00000000
  27         0.00000000
  28         0.00000000
  29        -0.00001407
  30        -0.00000000
  31        -0.00000000
  32        -0.00000000
  33        -0.00000000
  34        -0.00001416
  35         0.00000000
  36        -0.00000000
  37         0.00000000
  38        -0.00000000
  39        -0.00000041
  40         0.00000000
  41         0.00000000
  42         0.00000000
  43        -0.00000000
  44        -0.00000000
  45        -0.00000000
  46        -0.68226111
  47        -0.00475987
  48         0.00155574
  49        -0.00101053
  50         0.00031586
  51        -0.00015950
  52        -0.00000000
  53        -0.00000000
  54         0.00000052
  55         0.00000000
  56         0.00000000
  57        -0.00000521
  58         0.00000000
  59        -0.00000000
  60         0.00001365
  61        -0.00000000
  62         0.00000000
  63        -0.00001767
  64         0.00000251
  65         0.00000000
  66         0.00000000
  67         0.00000000
  68        -0.00000000
  69        -0.00000864
  70         0.00000000
  71        -0.00000000
  72         0.00000000
  73         0.00000000
  74         0.00001371
  75         0.00000000
  76         0.00000000
  77         0.00000000
  78        -0.00000000
  79         0.00001614
  80         0.00000000
  81        -0.00000000
  82        -0.00000000
  83         0.00000000
  84        -0.00000043
  85         0.00000000
  86        -0.00000000
  87        -0.00000000
  88        -0.00000000
  89         0.00000000
  90        -0.00000000
Sym=     2a  
Ene=  -220.3900
Spin= Alpha
Occup=    2.00000
   1         0.68226149
   2         0.00476083
   3        -0.00154846
   4         0.00099836
   5        -0.00032111
   6         0.00014241
   7        -0.00000000
   8        -0.00000000
   9        -0.00000128
  10         0.00000000
  11         0.00000000
  12         0.00000346
  13         0.00000000
  14         0.00000000
  15        -0.00000753
  16        -0.00000000
  17        -0.00000000
  18         0.00000094
  19         0.00000035
  20         0.00000000
  21        -0.00000000
  22        -0.00000000
  23         0.00000000
  24        -0.00000072
  25        -0.00000000
  26        -0.00000000
  27         0.00000000
  28         0.00000000
  29        -0.00000505
  30         0.00000000
  31        -0.00000000
  32        -0.00000000
  33         0.00000000
  34         0.00003101
  35        -0.00000000
  36        -0.00000000
  37         0.00000000
  38        -0.00000000
  39         0.00000031
  40         0.00000000
  41        -0.00000000
  42         0.00000000
  43        -0.00000000
  44         0.00000000
  45         0.00000000
  46         0.72812065
  47         0.00508078
  48        -0.00165302
  49         0.00106626
  50        -0.00034236
  51         0.00015309
  52         0.00000000
  53         0.00000000
  54         0.00000125
  55        -0.00000000
  56         0.00000000
  57        -0.00000313
  58         0.00000000
  59        -0.00000000
  60         0.00000666
  61        -0.00000000
  62         0.00000000
  63         0.00000021
  64         0.00000018
  65        -0.00000000
  66         0.00000000
  67        -0.00000000
  68        -0.00000000
  69        -0.00000015
  70         0.00000000
  71        -0.00000000
  72         0.00000000
  73         0.00000000
  74        -0.00000595
  75        -0.00000000
  76        -0.00000000
  77        -0.00000000
  78         0.00000000
  79         0.00003003
  80        -0.00000000
  81        -0.00000000
  82         0.00000000
  83         0.00000000
  84        -0.00000028
  85         0.00000000
  86        -0.00000000
  87         0.00000000
  88         0.00000000
  89         0.00000000
  90         0.00000000
Sym=     3a  
Ene=   -26.2100
Spin= Alpha
Occup=    2.00000
   1        -0.22146959
   2         0.73617421
   3         0.02354041
   4        -0.00614480
   5         0.00160018
   6        -0.00069648
   7        -0.00000000
   8         0.00000000
   9        -0.00009109
  10        -0.00000000
  11         0.00000000
  12         0.00001446
  13         0.00000000
  14        -0.00000000
  15        -0.00005564
  16         0.00000000
  17         0.00000000
  18         0.00007921
  19         0.00000598
  20        -0.00000000
  21         0.00000000
  22         0.00000000
  23        -0.00000000
  24        -0.00003936
  25         0.00000000
  26        -0.00000000
  27        -0.00000000
  28         0.00000000
  29         0.00006143
  30        -0.00000000
  31         0.00000000
  32         0.00000000
  33        -0.00000000
  34         0.00006622
  35        -0.00000000
  36        -0.00000000
  37         0.00000000
  38        -0.00000000
  39         0.00000139
  40        -0.00000000
  41         0.00000000
  42        -0.00000000
  43        -0.00000000
  44         0.00000000
  45         0.00000000
  46         0.21969616
  47        -0.73027934
  48        -0.02335233
  49         0.00609579
  50        -0.00158680
  51         0.00069197
  52        -0.00000000
  53        -0.00000000
  54        -0.00009043
  55        -0.00000000
  56        -0.00000000
  57         0.00001467
  58        -0.00000000
  59        -0.00000000
  60        -0.00005590
  61         0.00000000
  62         0.00000000
  63         0.00007920
  64        -0.00000594
  65        -0.00000000
  66         0.00000000
  67        -0.00000000
  68         0.00000000
  69         0.00003942
  70         0.00000000
  71        -0.00000000
  72         0.00000000
  73        -0.00000000
  74        -0.00006123
  75         0.00000000
  76         0.00000000
  77        -0.00000000
  78         0.00000000
  79        -0.00006728
  80        -0.00000000
  81         0.00000000
  82        -0.00000000
  83         0.00000000
  84         0.00000140
  85         0.00000000
  86         0.00000000
  87         0.00000000
  88         0.00000000
  89         0.00000000
  90        -0.00000000
Sym=     4a  
Ene=   -26.2100
Spin= Alpha
Occup=    2.00000
   1        -0.21970053
   2         0.73028481
   3         0.02330007
   4        -0.00607191
   5         0.00165767
   6        -0.00055711
   7        -0.00000000
   8         0.00000000
   9        -0.00008147
  10        -0.00000000
  11        -0.00000000
  12        -0.00002622
  13         0.00000000
  14        -0.00000000
  15         0.00003163
  16         0.00000000
  17         0.00000000
  18         0.00000092
  19         0.00000384
  20        -0.00000000
  21         0.00000000
  22         0.00000000
  23        -0.00000000
  24         0.00000741
  25         0.00000000
  26        -0.00000000
  27        -0.00000000
  28         0.00000000
  29         0.00002478
  30        -0.00000000
  31         0.00000000
  32        -0.00000000
  33        -0.00000000
  34        -0.00013228
  35        -0.00000000
  36         0.00000000
  37         0.00000000
  38         0.00000000
  39        -0.00000147
  40        -0.00000000
  41         0.00000000
  42        -0.00000000
  43         0.00000000
  44        -0.00000000
  45        -0.00000000
  46        -0.22147392
  47         0.73617963
  48         0.02348857
  49        -0.00612112
  50         0.00167048
  51        -0.00056269
  52         0.00000000
  53         0.00000000
  54         0.00008220
  55         0.00000000
  56         0.00000000
  57         0.00002610
  58        -0.00000000
  59        -0.00000000
  60        -0.00003118
  61        -0.00000000
  62        -0.00000000
  63        -0.00000156
  64         0.00000389
  65         0.00000000
  66        -0.00000000
  67         0.00000000
  68        -0.00000000
  69         0.00000710
  70        -0.00000000
  71         0.00000000
  72        -0.00000000
  73         0.00000000
  74         0.00002528
  75         0.00000000
  76        -0.00000000
  77         0.00000000
  78        -0.00000000
  79        -0.00013174
  80         0.00000000
  81        -0.00000000
  82        -0.00000000
  83        -0.00000000
  84         0.00000145
  85         0.00000000
  86        -0.00000000
  87         0.00000000
  88        -0.00000000
  89         0.00000000
  90         0.00000000
Sym=     5a  
Ene=   -22.1400
Spin= Alpha
Occup=    2.00000
   1        -0.00000000
   2         0.00000000
   3         0.00000000
   4         0.00000000
   5         0.00000000
   6        -0.00000000
   7         0.51273135
   8        -0.48825708
   9        -0.00000004
  10         0.01118322
  11        -0.01064941
  12        -0.00000000
  13        -0.00224030
  14         0.00213336
  15         0.00000000
  16         0.00066071
  17        -0.00062917
  18        -0.00000000
  19         0.00000000
  20        -0.00001157
  21         0.00001101
  22        -0.00000000
  23         0.00000000
  24         0.00000000
  25         0.00001685
  26        -0.00001604
  27        -0.00000000
  28        -0.00000000
  29        -0.00000000
  30        -0.00004875
  31         0.00004643
  32         0.00000000
  33         0.00000000
  34        -0.00000000
  35         0.00017075
  36        -0.00016260
  37        -0.00000000
  38        -0.00000000
  39         0.00000000
  40         0.00000111
  41        -0.00000106
  42         0.00000000
  43         0.00000000
  44         0.00000000
  45         0.00000000
  46        -0.00000000
  47         0.00000000
  48         0.00000000
  49        -0.00000000
  50         0.00000000
  51         0.00000000
  52        -0.50337262
  53         0.47934492
  54        -0.00000001
  55        -0.01097947
  56         0.01045538
  57        -0.00000000
  58         0.00220037
  59        -0.00209534
  60         0.00000000
  61        -0.00065021
  62         0.00061917
  63        -0.00000000
  64         0.00000000
  65        -0.00001142
  66         0.00001088
  67        -0.00000000
  68         0.00000000
  69        -0.00000000
  70         0.00001693
  71        -0.00001612
  72         0.00000000
  73        -0.00000000
  74         0.00000000
  75        -0.00004913
  76         0.00004678
  77        -0.00000000
  78         0.00000000
  79         0.00000000
  80         0.00017174
  81        -0.00016354
  82        -0.00000000
  83         0.00000000
  84        -0.00000000
  85        -0.00000111
  86         0.00000106
  87         0.00000000
  88        -0.00000000
  89        -0.00000000
  90        -0.00000000
Sym=     6a  
Ene=   -22.1400
Spin= Alpha
Occup=    2.00000
   1        -0.00000000
   2         0.00000000
   3        -0.00000000
   4        -0.00000000
   5        -0.00000000
   6         0.00000000
   7         0.48825692
   8         0.51273135
   9         0.00000001
  10         0.01064941
  11         0.01118322
  12         0.00000000
  13        -0.00213336
  14        -0.00224030
  15        -0.00000000
  16         0.00062917
  17         0.00066071
  18         0.00000000
  19        -0.00000000
  20        -0.00001101
  21        -0.00001157
  22        -0.00000000
  23        -0.00000000
  24        -0.00000000
  25         0.00001604
  26         0.00001685
  27         0.00000000
  28        -0.00000000
  29         0.00000000
  30        -0.00004643
  31        -0.00004875
  32        -0.00000000
  33        -0.00000000
  34         0.00000000
  35         0.00016260
  36         0.00017075
  37         0.00000000
  38         0.00000000
  39        -0.00000000
  40         0.00000106
  41         0.00000111
  42        -0.00000000
  43        -0.00000000
  44        -0.00000000
  45         0.00000000
  46        -0.00000000
  47         0.00000000
  48        -0.00000000
  49         0.00000000
  50         0.00000000
  51        -0.00000000
  52        -0.47934509
  53        -0.50337262
  54         0.00000000
  55        -0.01045538
  56        -0.01097947
  57         0.00000000
  58         0.00209534
  59         0.00220037
  60        -0.00000000
  61        -0.00061917
  62        -0.00065021
  63         0.00000000
  64         0.00000000
  65        -0.00001088
  66        -0.00001142
  67        -0.00000000
  68        -0.00000000
  69         0.00000000
  70         0.00001612
  71         0.00001693
  72         0.00000000
  73         0.00000000
  74        -0.00000000
  75        -0.00004678
  76        -0.00004913
  77        -0.00000000
  78        -0.00000000
  79        -0.00000000
  80         0.00016354
  81         0.00017174
  82        -0.00000000
  83         0.00000000
  84         0.00000000
  85        -0.00000106
  86        -0.00000111
  87         0.00000000
  88        -0.00000000
  89         0.00000000
  90        -0.00000000
Sym=     7a  
Ene=   -22.1400
Spin= Alpha
Occup=    2.00000
   1        -0.00000000
   2         0.00000000
   3         0.00000000
   4        -0.00000000
   5         0.00000000
   6        -0.00000000
   7         0.50852666
   8        -0.47388202
   9        -0.00000004
  10         0.01107122
  11        -0.01031697
  12        -0.00000000
  13        -0.00216898
  14         0.00202121
  15         0.00000000
  16         0.00056971
  17        -0.00053090
  18        -0.00000000
  19         0.00000000
  20        -0.00000787
  21         0.00000733
  22        -0.00000000
  23         0.00000000
  24         0.00000000
  25        -0.00000466
  26         0.00000434
  27        -0.00000000
  28        -0.00000000
  29         0.00000000
  30         0.00002103
  31        -0.00001959
  32         0.00000000
  33         0.00000000
  34        -0.00000000
  35        -0.00005556
  36         0.00005177
  37         0.00000000
  38        -0.00000000
  39         0.00000000
  40        -0.00000004
  41         0.00000004
  42         0.00000000
  43         0.00000000
  44        -0.00000000
  45        -0.00000000
  46         0.00000000
  47         0.00000000
  48         0.00000000
  49        -0.00000000
  50         0.00000000
  51         0.00000000
  52         0.51798105
  53        -0.48269248
  54         0.00000000
  55         0.01127744
  56        -0.01050914
  57         0.00000000
  58        -0.00221029
  59         0.00205971
  60        -0.00000000
  61         0.00058191
  62        -0.00054226
  63        -0.00000000
  64         0.00000000
  65         0.00000808
  66        -0.00000753
  67         0.00000000
  68        -0.00000000
  69        -0.00000000
  70         0.00000434
  71        -0.00000405
  72        -0.00000000
  73         0.00000000
  74         0.00000000
  75        -0.00002012
  76         0.00001875
  77         0.00000000
  78        -0.00000000
  79         0.00000000
  80         0.00005237
  81        -0.00004880
  82        -0.00000000
  83         0.00000000
  84        -0.00000000
  85        -0.00000002
  86         0.00000002
  87        -0.00000000
  88         0.00000000
  89         0.00000000
  90         0.00000000
Sym=     8a  
Ene=   -22.1400
Spin= Alpha
Occup=    2.00000
   1        -0.00000000
   2         0.00000000
   3        -0.00000000
   4         0.00000000
   5        -0.00000000
   6         0.00000000
   7         0.47388219
   8         0.50852667
   9         0.00000001
  10         0.01031697
  11         0.01107122
  12         0.00000000
  13        -0.00202121
  14        -0.00216898
  15        -0.00000000
  16         0.00053090
  17         0.00056971
  18         0.00000000
  19        -0.00000000
  20        -0.00000733
  21        -0.00000787
  22        -0.00000000
  23        -0.00000000
  24         0.00000000
  25        -0.00000434
  26        -0.00000466
  27         0.00000000
  28        -0.00000000
  29        -0.00000000
  30         0.00001959
  31         0.00002103
  32        -0.00000000
  33         0.00000000
  34         0.00000000
  35        -0.00005177
  36        -0.00005556
  37         0.00000000
  38        -0.00000000
  39        -0.00000000
  40        -0.00000004
  41        -0.00000004
  42        -0.00000000
  43        -0.00000000
  44         0.00000000
  45        -0.00000000
  46         0.00000000
  47        -0.00000000
  48        -0.00000000
  49         0.00000000
  50        -0.00000000
  51        -0.00000000
  52         0.48269232
  53         0.51798105
  54        -0.00000000
  55         0.01050913
  56         0.01127744
  57        -0.00000000
  58        -0.00205971
  59        -0.00221029
  60         0.00000000
  61         0.00054226
  62         0.00058191
  63         0.00000000
  64        -0.00000000
  65         0.00000753
  66         0.00000808
  67         0.00000000
  68         0.00000000
  69         0.00000000
  70         0.00000405
  71         0.00000434
  72        -0.00000000
  73        -0.00000000
  74        -0.00000000
  75        -0.00001875
  76        -0.00002012
  77         0.00000000
  78         0.00000000
  79        -0.00000000
  80         0.00004880
  81         0.00005237
  82        -0.00000000
  83        -0.00000000
  84         0.00000000
  85        -0.00000002
  86        -0.00000002
  87        -0.00000000
  88         0.00000000
  89        -0.00000000
  90         0.00000000
Sym=     9a  
Ene=   -22.1400
Spin= Alpha
Occup=    2.00000
   1        -0.00002614
   2         0.00010256
   3         0.00003932
   4        -0.00008717
   5        -0.00005714
   6         0.00050380
   7         0.00000002
   8        -0.00000004
   9         0.70300471
  10         0.00000000
  11        -0.00000000
  12         0.01541497
  13        -0.00000000
  14         0.00000000
  15        -0.00329230
  16         0.00000000
  17        -0.00000000
  18         0.00130301
  19         0.00000943
  20        -0.00000000
  21         0.00000000
  22         0.00000000
  23        -0.00000000
  24        -0.00006559
  25         0.00000000
  26        -0.00000000
  27        -0.00000000
  28         0.00000000
  29         0.00013065
  30        -0.00000000
  31         0.00000000
  32         0.00000000
  33         0.00000000
  34         0.00023973
  35         0.00000000
  36        -0.00000000
  37        -0.00000000
  38        -0.00000000
  39         0.00000368
  40         0.00000000
  41        -0.00000000
  42         0.00000000
  43        -0.00000000
  44         0.00000000
  45        -0.00000000
  46         0.00002602
  47        -0.00010220
  48        -0.00003944
  49         0.00008746
  50         0.00005672
  51        -0.00050384
  52        -0.00000000
  53         0.00000001
  54         0.70012997
  55        -0.00000000
  56         0.00000000
  57         0.01535242
  58         0.00000000
  59        -0.00000000
  60        -0.00328017
  61        -0.00000000
  62         0.00000000
  63         0.00130015
  64        -0.00000953
  65         0.00000000
  66         0.00000000
  67        -0.00000000
  68         0.00000000
  69         0.00006576
  70         0.00000000
  71        -0.00000000
  72         0.00000000
  73        -0.00000000
  74        -0.00013108
  75        -0.00000000
  76         0.00000000
  77        -0.00000000
  78         0.00000000
  79        -0.00023947
  80         0.00000000
  81        -0.00000000
  82         0.00000000
  83         0.00000000
  84         0.00000369
  85         0.00000000
  86        -0.00000000
  87        -0.00000000
  88        -0.00000000
  89        -0.00000000
  90         0.00000000
Sym=    10a  
Ene=   -22.1400
Spin= Alpha
Occup=    2.00000
   1         0.00002893
   2        -0.00008725
   3         0.00003037
   4        -0.00007108
   5         0.00010317
   6         0.00001108
   7        -0.00000002
   8         0.00000003
   9        -0.70015381
  10        -0.00000000
  11         0.00000000
  12        -0.01523405
  13         0.00000000
  14        -0.00000000
  15         0.00295240
  16        -0.00000000
  17         0.00000000
  18        -0.00069597
  19         0.00002615
  20         0.00000000
  21        -0.00000000
  22        -0.00000000
  23         0.00000000
  24        -0.00004074
  25        -0.00000000
  26         0.00000000
  27        -0.00000000
  28        -0.00000000
  29         0.00010564
  30         0.00000000
  31        -0.00000000
  32         0.00000000
  33        -0.00000000
  34        -0.00006443
  35        -0.00000000
  36         0.00000000
  37        -0.00000000
  38        -0.00000000
  39         0.00000189
  40        -0.00000000
  41         0.00000000
  42        -0.00000000
  43         0.00000000
  44        -0.00000000
  45         0.00000000
  46         0.00002904
  47        -0.00008767
  48         0.00003021
  49        -0.00007072
  50         0.00010340
  51         0.00000901
  52        -0.00000000
  53         0.00000001
  54         0.70302845
  55        -0.00000000
  56         0.00000000
  57         0.01529708
  58         0.00000000
  59        -0.00000000
  60        -0.00296586
  61        -0.00000000
  62         0.00000000
  63         0.00070130
  64         0.00002611
  65         0.00000000
  66        -0.00000000
  67        -0.00000000
  68         0.00000000
  69        -0.00004047
  70        -0.00000000
  71         0.00000000
  72         0.00000000
  73        -0.00000000
  74         0.00010510
  75         0.00000000
  76        -0.00000000
  77         0.00000000
  78        -0.00000000
  79        -0.00006541
  80        -0.00000000
  81         0.00000000
  82         0.00000000
  83        -0.00000000
  84        -0.00000188
  85         0.00000000
  86        -0.00000000
  87        -0.00000000
  88        -0.00000000
  89        -0.00000000
  90         0.00000000
Sym=    11a  
Ene=    -3.2854
Spin= Alpha
Occup=    2.00000
   1         0.07944521
   2        -0.31494596
   3         0.45024404
   4         0.33278137
   5         0.01044532
   6        -0.00340449
   7         0.00000000
   8         0.00000000
   9         0.00021985
  10        -0.00000000
  11        -0.00000000
  12        -0.00048042
  13         0.00000000
  14        -0.00000000
  15        -0.00025848
  16        -0.00000000
  17         0.00000000
  18        -0.00003215
  19         0.00000786
  20         0.00000000
  21        -0.00000000
  22        -0.00000000
  23         0.00000000
  24        -0.00001709
  25         0.00000000
  26        -0.00000000
  27        -0.00000000
  28         0.00000000
  29         0.00001264
  30         0.00000000
  31        -0.00000000
  32        -0.00000000
  33         0.00000000
  34        -0.00043260
  35         0.00000000
  36        -0.00000000
  37        -0.00000000
  38         0.00000000
  39        -0.00000775
  40        -0.00000000
  41         0.00000000
  42        -0.00000000
  43        -0.00000000
  44        -0.00000000
  45         0.00000000
  46         0.07884164
  47        -0.31255356
  48         0.44682281
  49         0.33025529
  50         0.01036525
  51        -0.00337615
  52        -0.00000000
  53        -0.00000000
  54        -0.00021826
  55         0.00000000
  56         0.00000000
  57         0.00047737
  58         0.00000000
  59        -0.00000000
  60         0.00025411
  61        -0.00000000
  62         0.00000000
  63         0.00003519
  64         0.00000758
  65        -0.00000000
  66         0.00000000
  67        -0.00000000
  68         0.00000000
  69        -0.00001601
  70        -0.00000000
  71         0.00000000
  72        -0.00000000
  73         0.00000000
  74         0.00001060
  75        -0.00000000
  76         0.00000000
  77        -0.00000000
  78         0.00000000
  79        -0.00043477
  80        -0.00000000
  81         0.00000000
  82        -0.00000000
  83         0.00000000
  84         0.00000775
  85         0.00000000
  86        -0.00000000
  87        -0.00000000
  88         0.00000000
  89        -0.00000000
  90         0.00000000
Sym=    12a  
Ene=    -3.2854
Spin= Alpha
Occup=    2.00000
   1        -0.07884467
   2         0.31252415
   3        -0.44692264
   4        -0.32998489
   5        -0.01046080
   6         0.00370296
   7        -0.00000000
   8        -0.00000000
   9        -0.00020738
  10         0.00000000
  11         0.00000000
  12         0.00039748
  13        -0.00000000
  14         0.00000000
  15         0.00057114
  16         0.00000000
  17        -0.00000000
  18        -0.00039942
  19        -0.00003646
  20        -0.00000000
  21         0.00000000
  22         0.00000000
  23        -0.00000000
  24         0.00014203
  25        -0.00000000
  26         0.00000000
  27         0.00000000
  28        -0.00000000
  29        -0.00026804
  30        -0.00000000
  31         0.00000000
  32         0.00000000
  33        -0.00000000
  34        -0.00028647
  35        -0.00000000
  36         0.00000000
  37         0.00000000
  38        -0.00000000
  39         0.00000031
  40         0.00000000
  41        -0.00000000
  42         0.00000000
  43         0.00000000
  44         0.00000000
  45        -0.00000000
  46         0.07944822
  47        -0.31491678
  48         0.45034312
  49         0.33251302
  50         0.01054015
  51        -0.00372882
  52        -0.00000000
  53        -0.00000000
  54        -0.00020905
  55         0.00000000
  56         0.00000000
  57         0.00040113
  58         0.00000000
  59        -0.00000000
  60         0.00057310
  61        -0.00000000
  62         0.00000000
  63        -0.00039916
  64         0.00003652
  65        -0.00000000
  66         0.00000000
  67        -0.00000000
  68         0.00000000
  69        -0.00014215
  70        -0.00000000
  71         0.00000000
  72        -0.00000000
  73         0.00000000
  74         0.00026813
  75        -0.00000000
  76         0.00000000
  77        -0.00000000
  78         0.00000000
  79         0.00028316
  80        -0.00000000
  81         0.00000000
  82        -0.00000000
  83         0.00000000
  84         0.00000037
  85        -0.00000000
  86        -0.00000000
  87        -0.00000000
  88         0.00000000
  89        -0.00000000
  90         0.00000000
Sym=    13a  
Ene=    -2.0514
Spin= Alpha
Occup=    2.00000
   1        -0.00008990
   2         0.00023997
   3        -0.00076646
   4         0.00028030
   5        -0.00010410
   6        -0.00047951
   7         0.00000002