HF file generated by AutoMR of MOKIT
Stability RHF                                                         Gen
Number of atoms                            I                2
Info1-9                                    I   N=           9
           6           5           0           0           0         110
           7           1           2
Charge                                     I                0
Multiplicity                               I                1
Number of electrons                        I               48
Number of alpha electrons                  I               24
Number of beta electrons                   I               24
Number of basis functions                  I               90
Number of independent functions            I               90
Number of point charges in /Mol/           I                0
Number of translation vectors              I                0
Atomic numbers                             I   N=           2
          24          24
Nuclear charges                            R   N=           2
  2.40000000E+01  2.40000000E+01
Current cartesian coordinates              R   N=           6
  0.00000000E+00  0.00000000E+00  0.00000000E+00  0.00000000E+00  0.00000000E+00
  7.55890453E+00
Force Field                                I                0
Int Atom Types                             I   N=           2
           0           0
MM charges                                 R   N=           2
  0.00000000E+00  0.00000000E+00
Integer atomic weights                     I   N=           2
          52          52
Real atomic weights                        R   N=           2
  5.19405097E+01  5.19405097E+01
Atom fragment info                         I   N=           2
           1           2
Atom residue num                           I   N=           2
           0           0
Nuclear spins                              I   N=           2
           0           0
Nuclear ZEff                               R   N=           2
 -2.47200000E+01 -2.47200000E+01
Nuclear QMom                               R   N=           2
  0.00000000E+00  0.00000000E+00
Nuclear GFac                               R   N=           2
  0.00000000E+00  0.00000000E+00
MicOpt                                     I   N=           2
          -1          -1
Number of contracted shells                I               30
Number of primitive shells                 I               72
Pure/Cartesian d shells                    I                0
Pure/Cartesian f shells                    I                0
Highest angular momentum                   I                3
Largest degree of contraction              I                8
Shell types                                I   N=          30
           0           0           0           0           0           0
           1           1           1          -2          -2          -2
           1          -2          -3           0           0           0
           0           0           0           1           1           1
          -2          -2          -2           1          -2          -3
Number of primitives per shell             I   N=          30
           8           4           2           1           1           1
           6           3           1           4           1           1
           1           1           1           8           4           2
           1           1           1           6           3           1
           4           1           1           1           1           1
Shell to atom map                          I   N=          30
           1           1           1           1           1           1
           1           1           1           1           1           1
           1           1           1           2           2           2
           2           2           2           2           2           2
           2           2           2           2           2           2
Primitive exponents                        R   N=          72
  2.54477807E+05  3.81317971E+04  8.67529306E+03  2.45500998E+03  7.99162178E+02
  2.86900215E+02  1.11254132E+02  4.38641526E+01  2.79326692E+02  8.62747324E+01
  1.35557561E+01  5.69781128E+00  8.56365826E+00  1.39882968E+00  5.72881711E-01
  9.00961713E-02  3.41258851E-02  1.30643989E+03  3.09253114E+02  9.89962740E+01
  3.67569165E+01  1.45666571E+01  5.87399374E+00  2.28909997E+01  3.08550018E+00
  1.21323291E+00  4.49316807E-01  4.37200745E+01  1.23912427E+01  4.26394420E+00
  1.55252218E+00  5.37619295E-01  1.64931731E-01  1.20675000E-01  5.10000000E-02
  1.14700000E+00  2.54477807E+05  3.81317971E+04  8.67529306E+03  2.45500998E+03
  7.99162178E+02  2.86900215E+02  1.11254132E+02  4.38641526E+01  2.79326692E+02
  8.62747324E+01  1.35557561E+01  5.69781128E+00  8.56365826E+00  1.39882968E+00
  5.72881711E-01  9.00961713E-02  3.41258851E-02  1.30643989E+03  3.09253114E+02
  9.89962740E+01  3.67569165E+01  1.45666571E+01  5.87399374E+00  2.28909997E+01
  3.08550018E+00  1.21323291E+00  4.49316807E-01  4.37200745E+01  1.23912427E+01
  4.26394420E+00  1.55252218E+00  5.37619295E-01  1.64931731E-01  1.20675000E-01
  5.10000000E-02  1.14700000E+00
Contraction coefficients                   R   N=          72
  2.42904776E-04  1.88435236E-03  9.80095844E-03  3.98250087E-02  1.29405437E-01
  3.06290018E-01  4.34628350E-01  2.24695629E-01 -2.43633579E-02 -1.15114954E-01
  5.50922663E-01  5.36113547E-01 -3.71230177E-01  1.16811695E+00  1.00000000E+00
  1.00000000E+00  1.00000000E+00  2.82928007E-03  2.27766292E-02  1.05645619E-01
  2.99499449E-01  4.77062454E-01  2.76542344E-01 -1.94121061E-02  3.86188758E-01
  6.76239089E-01  1.00000000E+00  2.20932593E-02  1.28014388E-01  3.86529103E-01
  6.41033014E-01  1.00000000E+00  1.00000000E+00  1.00000000E+00  1.00000000E+00
  1.00000000E+00  2.42904776E-04  1.88435236E-03  9.80095844E-03  3.98250087E-02
  1.29405437E-01  3.06290018E-01  4.34628350E-01  2.24695629E-01 -2.43633579E-02
 -1.15114954E-01  5.50922663E-01  5.36113547E-01 -3.71230177E-01  1.16811695E+00
  1.00000000E+00  1.00000000E+00  1.00000000E+00  2.82928007E-03  2.27766292E-02
  1.05645619E-01  2.99499449E-01  4.77062454E-01  2.76542344E-01 -1.94121061E-02
  3.86188758E-01  6.76239089E-01  1.00000000E+00  2.20932593E-02  1.28014388E-01
  3.86529103E-01  6.41033014E-01  1.00000000E+00  1.00000000E+00  1.00000000E+00
  1.00000000E+00  1.00000000E+00
Coordinates of each shell                  R   N=          90
  0.00000000E+00  0.00000000E+00  0.00000000E+00  0.00000000E+00  0.00000000E+00
  0.00000000E+00  0.00000000E+00  0.00000000E+00  0.00000000E+00  0.00000000E+00
  0.00000000E+00  0.00000000E+00  0.00000000E+00  0.00000000E+00  0.00000000E+00
  0.00000000E+00  0.00000000E+00  0.00000000E+00  0.00000000E+00  0.00000000E+00
  0.00000000E+00  0.00000000E+00  0.00000000E+00  0.00000000E+00  0.00000000E+00
  0.00000000E+00  0.00000000E+00  0.00000000E+00  0.00000000E+00  0.00000000E+00
  0.00000000E+00  0.00000000E+00  0.00000000E+00  0.00000000E+00  0.00000000E+00
  0.00000000E+00  0.00000000E+00  0.00000000E+00  0.00000000E+00  0.00000000E+00
  0.00000000E+00  0.00000000E+00  0.00000000E+00  0.00000000E+00  0.00000000E+00
  0.00000000E+00  0.00000000E+00  7.55890453E+00  0.00000000E+00  0.00000000E+00
  7.55890453E+00  0.00000000E+00  0.00000000E+00  7.55890453E+00  0.00000000E+00
  0.00000000E+00  7.55890453E+00  0.00000000E+00  0.00000000E+00  7.55890453E+00
  0.00000000E+00  0.00000000E+00  7.55890453E+00  0.00000000E+00  0.00000000E+00
  7.55890453E+00  0.00000000E+00  0.00000000E+00  7.55890453E+00  0.00000000E+00
  0.00000000E+00  7.55890453E+00  0.00000000E+00  0.00000000E+00  7.55890453E+00
  0.00000000E+00  0.00000000E+00  7.55890453E+00  0.00000000E+00  0.00000000E+00
  7.55890453E+00  0.00000000E+00  0.00000000E+00  7.55890453E+00  0.00000000E+00
  0.00000000E+00  7.55890453E+00  0.00000000E+00  0.00000000E+00  7.55890453E+00
Constraint Structure                       R   N=           6
  0.00000000E+00  0.00000000E+00  0.00000000E+00  0.00000000E+00  0.00000000E+00
  7.55890453E+00
Num ILSW                                   I              100
ILSW                                       I   N=         100
           0           0           0           0           2           1
           0           0           0           0           0          -1
           0           0           0           0           0           0
           0           0           0           0           0           0
           1           1           0           0           0           0
           0           0      100000           0          -1           0
           0           0           0           0           0           0
           0           0           0           1           0           0
           0           0           1           0           0           0
           0           0           4          40           0           0
           0           0           0           0           0           0
           0           0           0           0           0           0
           0           0           0           0           0           0
           0           0           0           0           0           0
           0           0           0           0           0           0
           0           0           0           0           0           0
           0           0           0           0
Num RLSW                                   I               40
RLSW                                       R   N=          40
  1.00000000E+00  1.00000000E+00  1.00000000E+00  1.00000000E+00  1.00000000E+00
  0.00000000E+00  0.00000000E+00  1.00000000E+00  0.00000000E+00  0.00000000E+00
  0.00000000E+00  0.00000000E+00  1.00000000E+00  0.00000000E+00  0.00000000E+00
  0.00000000E+00  0.00000000E+00  1.00000000E+00  0.00000000E+00  0.00000000E+00
  0.00000000E+00  0.00000000E+00  1.00000000E+00  0.00000000E+00  0.00000000E+00
  0.00000000E+00  0.00000000E+00  1.00000000E+00  0.00000000E+00  0.00000000E+00
  0.00000000E+00  0.00000000E+00  1.00000000E+00  0.00000000E+00  0.00000000E+00
  0.00000000E+00  0.00000000E+00  0.00000000E+00  1.00000000E+00  1.00000000E+00
ECP-MxAtEC                                 I           250000
ECP-MaxLECP                                I               10
ECP-MaxAtL                                 I          2250000
ECP-MxTECP                                 I         11250000
ECP-LenNCZ                                 I                0
ECP-KFirst                                 I   N=          20
           0           0           0           0           0           0
           0           0           0           0           0           0
           0           0           0           0           0           0
           0           0
ECP-KLast                                  I   N=          20
           0           0           0           0           0           0
           0           0           0           0           0           0
           0           0           0           0           0           0
           0           0
ECP-LMax                                   I   N=           2
           0           0
ECP-LPSkip                                 I   N=           2
           1           1
ECP-RNFroz                                 R   N=           2
  0.00000000E+00  0.00000000E+00
ECP-NLP                                    I                0
ECP-CLP1                                   R      0.000000000000000E+00
ECP-CLP2                                   R      0.000000000000000E+00
ECP-ZLP                                    R      0.000000000000000E+00
MxBond                                     I                1
NBond                                      I   N=           2
           0           0
IBond                                      I   N=           2
           0           0
RBond                                      R   N=           2
  0.00000000E+00  0.00000000E+00
Virial Ratio                               R      2.000025260610248E+00
SCF Energy                                 R     -2.086670643535291E+03
Total Energy                               R     -2.086670643535291E+03
S**2                                       R      5.898514692580772E+00
S**2 after annihilation                    R      1.824398861277341E+01
RMS Density                                R      1.915880506482937E-09
External E-field                           R   N=          35
  0.00000000E+00  0.00000000E+00  0.00000000E+00  0.00000000E+00  0.00000000E+00
  0.00000000E+00  0.00000000E+00  0.00000000E+00  0.00000000E+00  0.00000000E+00
  0.00000000E+00  0.00000000E+00  0.00000000E+00  0.00000000E+00  0.00000000E+00
  0.00000000E+00  0.00000000E+00  0.00000000E+00  0.00000000E+00  0.00000000E+00
  0.00000000E+00  0.00000000E+00  0.00000000E+00  0.00000000E+00  0.00000000E+00
  0.00000000E+00  0.00000000E+00  0.00000000E+00  0.00000000E+00  0.00000000E+00
  0.00000000E+00  0.00000000E+00  0.00000000E+00  0.00000000E+00  0.00000000E+00
IOpCl                                      I                0
IROHF                                      I                0
Alpha Orbital Energies                     R   N=          90
  2.00000000E+00  2.00000000E+00  2.00000000E+00  2.00000000E+00  2.00000000E+00
  2.00000000E+00  2.00000000E+00  2.00000000E+00  2.00000000E+00  2.00000000E+00
  2.00000000E+00  2.00000000E+00  2.00000000E+00  2.00000000E+00  2.00000000E+00
  2.00000000E+00  2.00000000E+00  2.00000000E+00  1.37935462E+00  1.01496042E+00
  1.01431834E+00  1.01431834E+00  1.00243902E+00  1.00243902E+00  9.97560979E-01
  9.97560980E-01  9.85681792E-01  9.85681792E-01  9.85076399E-01  6.20608301E-01
  0.00000000E+00  0.00000000E+00  0.00000000E+00  0.00000000E+00  0.00000000E+00
  0.00000000E+00  0.00000000E+00  0.00000000E+00  0.00000000E+00  0.00000000E+00
  0.00000000E+00  0.00000000E+00  0.00000000E+00  0.00000000E+00  0.00000000E+00
  0.00000000E+00  0.00000000E+00  0.00000000E+00  0.00000000E+00  0.00000000E+00
  0.00000000E+00  0.00000000E+00  0.00000000E+00  0.00000000E+00  0.00000000E+00
  0.00000000E+00  0.00000000E+00  0.00000000E+00  0.00000000E+00  0.00000000E+00
  0.00000000E+00  0.00000000E+00  0.00000000E+00  0.00000000E+00  0.00000000E+00
  0.00000000E+00  0.00000000E+00  0.00000000E+00  0.00000000E+00  0.00000000E+00
  0.00000000E+00  0.00000000E+00  0.00000000E+00  0.00000000E+00  0.00000000E+00
  0.00000000E+00  0.00000000E+00  0.00000000E+00  0.00000000E+00  0.00000000E+00
  0.00000000E+00  0.00000000E+00  0.00000000E+00  0.00000000E+00  0.00000000E+00
  0.00000000E+00  0.00000000E+00  0.00000000E+00  0.00000000E+00  0.00000000E+00
Alpha MO coefficients                      R   N=        8100
  7.28120303E-01  5.07987108E-03 -1.65984251E-03  1.07765772E-03 -3.37430903E-04
  1.69110359E-04 -1.48441116E-14 -5.94996948E-15  4.39543732E-07 -4.64330013E-14
  7.25662882E-15 -4.99257152E-06  7.43639382E-14  4.08097237E-14  1.31904316E-05
 -2.49304275E-06 -2.25113836E-15 -3.02378286E-14  1.05718167E-14 -5.03185425E-14
  8.61180407E-06  4.20507611E-14  4.00834722E-14  3.75353542E-14  6.99798776E-14
 -1.40677669E-05 -2.36035495E-14 -4.00270830E-14 -5.64664494E-14 -1.62460835E-14
 -3.65386983E-14 -8.89188157E-14 -1.76425535E-05 -1.41574743E-05  6.97692032E-14
 -9.39387928E-15  3.84219484E-14 -6.11409474E-14 -4.11720378E-07  5.15936413E-14
  3.71554245E-14  9.14991923E-15 -4.22199172E-14 -4.61842291E-14 -1.67574424E-14
 -6.82261114E-01 -4.75986675E-03  1.55574495E-03 -1.01052594E-03  3.15857928E-04
 -1.59502196E-04 -2.23573718E-14 -2.60286772E-14  5.21732475E-07  4.69498508E-15
  5.56027936E-14 -5.20680370E-06  2.76732213E-15 -7.06339247E-14  1.36517435E-05
  2.51021513E-06  2.69787819E-14  3.01134317E-15  2.87770606E-14 -4.86488432E-14
 -8.64006558E-06  2.40210334E-15 -5.83046740E-14  3.63132600E-14  1.77916391E-14
  1.37099235E-05  9.87759998E-15  2.80645640E-14  7.56614175E-15 -1.09223176E-13
 -8.10664223E-15  2.10592848E-14 -1.76662435E-05  1.61423183E-05  9.47588392E-14
 -6.33520917E-14 -2.14773005E-15  3.79956386E-14 -4.31119674E-07  2.33872128E-14
 -1.70593637E-14 -2.96102514E-14 -7.21824897E-15  1.90991233E-14 -2.58192789E-14
  6.82261487E-01  4.76083491E-03 -1.54846271E-03  9.98357247E-04 -3.21113378E-04
  1.42405232E-04 -2.58632756E-14 -6.20326931E-15 -1.27940965E-06  5.02141235E-15
  7.03300013E-15  3.46010888E-06  9.06063999E-15  1.95583958E-14 -7.53011543E-06
  3.45406464E-07  1.54126441E-14 -1.55595817E-15 -1.62024976E-14  2.80843508E-14
 -7.15062471E-07 -7.19672614E-14 -7.11986932E-14  4.54282858E-14  3.89160543E-14
 -5.05106786E-06  4.31780082E-14 -4.28075301E-15 -5.91331820E-14  2.17893601E-14
 -3.91173540E-14 -4.01927102E-14  9.38324251E-07  3.10141719E-05 -4.27264048E-15
  1.96414873E-16  3.98360509E-14 -9.23839836E-14  3.12011210E-07  4.78203088E-14
 -8.12124210E-14  4.22834862E-14 -4.97195483E-15  3.47908276E-15  3.68233603E-14
  7.28120653E-01  5.08077827E-03 -1.65301893E-03  1.06625545E-03 -3.42355349E-04
  1.53090212E-04  4.29360518E-14  7.65880672E-15  1.24814926E-06 -8.07820861E-14
  2.35572646E-14 -3.12847002E-06  9.92788216E-14 -6.57848310E-14  6.65732925E-06
  1.82723347E-07 -3.28612219E-14  2.14592115E-14 -3.22670497E-15 -3.18936211E-14
 -1.54110372E-07  3.74631190E-14 -8.21605853E-15  8.26439909E-14  1.21524809E-14
 -5.95427162E-06 -1.22564461E-14 -5.57078410E-14 -1.16253599E-13  2.12994105E-14
 -3.03733295E-14  8.36072386E-14  2.09757302E-07  3.00289609E-05 -5.28207223E-14
 -4.19420600E-14  3.58697739E-14  3.26850239E-14 -2.84605862E-07  1.93473820E-14
 -2.11208736E-14  1.35159533E-14  5.38710612E-14  4.47556694E-14  4.16393940E-14
 -2.21469588E-01  7.36174206E-01  2.35404132E-02 -6.14480495E-03  1.60018314E-03
 -6.96475064E-04 -5.87551369E-12  6.68938830E-12 -9.10902834E-05 -4.05768116E-13
  4.15724059E-14  1.44611222E-05  1.93952890E-13 -4.23133119E-13 -5.56435332E-05
  5.97510281E-06 -6.31953902E-13  1.73158430E-12  1.07059570E-13 -6.86796021E-13
 -3.93604844E-05  6.51486885E-13 -2.04243791E-12 -1.28223242E-13  5.56400528E-13
  6.14325599E-05 -1.35323531E-13  5.20342216E-13  8.46345982E-15 -4.50138521E-14
  3.14094887E-14  4.20432843E-13  7.92070479E-05  6.62194735E-05 -3.78336961E-14
 -2.47469184E-14  4.87878067E-14 -6.70964605E-14  1.38721761E-06 -1.53118376E-14
  1.87537337E-13 -8.20603386E-15 -8.60957529E-15 -2.60322130E-16  1.94428368E-14
  2.19696163E-01 -7.30279337E-01 -2.33523330E-02  6.09579160E-03 -1.58680466E-03
  6.91973709E-04 -2.17974687E-12 -2.52208459E-12 -9.04318509E-05 -3.22055042E-13
 -1.02915346E-13  1.46715219E-05 -6.91984180E-15 -5.65508718E-14 -5.58960412E-05
 -5.94403246E-06 -3.13316169E-13  7.74982644E-13 -2.15808343E-13  6.45660313E-13
  3.94188190E-05  4.39596820E-13 -1.39322053E-12  6.39348573E-14 -5.55603453E-13
 -6.12313227E-05  9.47221867E-14  4.34079943E-14 -1.89493802E-14  5.22265074E-14
  2.34325480E-13  1.11572331E-13  7.91970467E-05 -6.72808032E-05 -2.01917105E-13
  2.52641969E-13 -5.76746304E-14  3.71369859E-14  1.39895636E-06  3.11492885E-14
  4.10053292E-14  4.93460919E-14  1.09940671E-14  4.04118000E-14 -4.80848910E-14
 -2.19700526E-01  7.30284810E-01  2.33000734E-02 -6.07191412E-03  1.65766975E-03
 -5.57112301E-04 -5.80856960E-12  6.64629050E-12 -8.14744460E-05 -4.40004752E-13
 -2.51081070E-15 -2.62208582E-05  1.90593728E-13 -3.49300071E-13  3.16305601E-05
  3.84079639E-06 -6.35381569E-13  1.96324006E-12  4.88261485E-14 -5.87790562E-13
  7.41393945E-06  6.03761746E-13 -1.84063787E-12 -2.48400739E-14  6.27502148E-13
  2.47835047E-05 -1.50422087E-13  5.95216494E-13 -1.10544387E-14 -1.74309044E-13
  1.47603043E-13  3.75460113E-13  9.22431257E-07 -1.32281395E-04 -2.19266402E-14
  1.02517620E-14  1.31325246E-14  8.11160101E-14 -1.46558565E-06 -6.79494832E-14
  1.94299620E-13 -2.95371566E-15  4.22308473E-14 -4.49515614E-14 -1.61460730E-14
 -2.21473917E-01  7.36179635E-01  2.34885720E-02 -6.12111870E-03  1.67048075E-03
 -5.62693478E-04  2.18344128E-12  2.51657512E-12  8.22036438E-05  3.86618624E-13
  1.98103084E-13  2.61036822E-05 -1.11555337E-13 -6.76034891E-14 -3.11821731E-05
  3.88871858E-06  3.25923571E-13 -7.01006231E-13  1.80522326E-13 -5.47990293E-13
  7.09726506E-06 -4.86012218E-13  1.46344325E-12 -1.87681634E-13  6.57786423E-13
  2.52765908E-05  1.23925546E-13 -9.46619401E-14  4.32654753E-14 -1.47325067E-13
 -1.26550944E-13 -8.73499960E-14 -1.55916936E-06 -1.31744741E-04  9.88284828E-14
 -4.15335255E-13 -8.46308716E-15 -6.48631710E-14  1.45438457E-06  2.70090788E-14
 -1.74437547E-14  1.28011760E-14 -8.01922446E-15  1.61994901E-14  5.94160164E-14
 -1.20398114E-12  3.81997210E-12  4.43172217E-13  8.96773166E-13  4.17999685E-12
 -1.61197126E-11  5.12731353E-01 -4.88257080E-01 -3.86551113E-08  1.11832199E-02
 -1.06494098E-02 -8.45303801E-10 -2.24030074E-03  2.13336416E-03  1.74340372E-10
  2.39424559E-12 -1.15667468E-05  1.10146292E-05 -9.97932538E-14  1.37619414E-12
  9.61484367E-13  1.68471361E-05 -1.60429666E-05 -4.45418000E-14 -4.13249295E-13
 -1.37869643E-12 -4.87526371E-05  4.64255114E-05  1.12179431E-13  4.92136046E-13
  6.60709337E-04 -6.29171600E-04 -5.85529390E-11 -9.55706183E-12  1.70753603E-04
 -1.62602967E-04 -3.85922080E-15 -8.82691799E-14  1.25302357E-13  1.10898428E-06
 -1.05604883E-06  9.07899606E-14  1.08253308E-13  5.43050640E-15  2.51029390E-14
 -2.24303198E-13  1.47952466E-12  1.74830856E-12 -4.52335023E-12  5.27916091E-13
  1.71000024E-11 -5.03372616E-01  4.79344923E-01 -8.01095331E-09 -1.09794657E-02
  1.04553783E-02 -1.78019647E-10  2.20037467E-03 -2.09534328E-03  4.46130616E-11
  9.53582562E-13 -1.14212396E-05  1.08760654E-05 -3.96655268E-13  2.33101832E-13
 -3.11075759E-12  1.69291618E-05 -1.61210782E-05  9.91516196E-15 -4.06061806E-14
  6.63596738E-12 -4.91277252E-05  4.67827011E-05 -3.43724888E-14  1.33822548E-14
 -6.50210002E-04  6.19173272E-04 -2.79137046E-11  6.56844222E-12  1.71737587E-04
 -1.63539998E-04 -4.80114394E-14  5.43772476E-14 -3.01099887E-13 -1.10950075E-06
  1.05654070E-06  6.07949972E-15 -2.47815914E-14 -1.06871468E-14 -2.70762167E-14
 -4.11395280E-13  1.50233751E-12 -6.15583967E-13 -5.93288463E-13 -1.00977734E-12
  6.91270494E-12  4.88256919E-01  5.12731348E-01  1.40894112E-08  1.06494063E-02
  1.11832198E-02  3.08291641E-10 -2.13336348E-03 -2.24030072E-03 -6.40102478E-11
 -8.11978138E-13 -1.10146266E-05 -1.15667464E-05 -1.33071446E-12 -1.03195565E-13
 -4.60477707E-13  1.60429680E-05  1.68471361E-05  4.55698386E-13 -1.69213022E-14
  7.64471730E-13 -4.64255180E-05 -4.87526371E-05 -4.96970890E-13 -1.64189867E-16
  6.29171420E-04  6.60709332E-04  2.20449905E-11  3.70867198E-12  1.62602985E-04
  1.70753603E-04  1.04595074E-13  3.00092055E-14 -1.53640506E-13  1.05604885E-06
  1.10898428E-06 -4.96409556E-14 -5.49713679E-14 -1.91838724E-14  2.98307453E-14
 -9.46844109E-13  2.92072085E-12 -1.04786459E-12  1.54489811E-12  4.43850404E-13
 -6.34130389E-12 -4.79345087E-01 -5.03372620E-01  4.48662393E-09 -1.04553819E-02
 -1.09794658E-02  9.90695051E-11  2.09534398E-03  2.20037469E-03 -2.31879940E-11
  8.16093110E-14 -1.08760678E-05 -1.14212394E-05 -2.43434659E-13 -3.48961547E-13
  1.18859747E-12  1.61210769E-05  1.69291618E-05  3.52191639E-14  4.65499945E-14
 -2.32747031E-12 -4.67826947E-05 -4.91277249E-05 -4.09275495E-14 -9.84440444E-14
 -6.19173456E-04 -6.50210007E-04  1.23569775E-11 -2.71803614E-12  1.63539981E-04
  1.71737586E-04 -3.38363630E-14  9.64079345E-16  1.64120087E-13 -1.05654062E-06
 -1.10950075E-06  6.43598241E-14 -1.08886093E-13  1.25584946E-14 -4.74477645E-14
 -1.14109356E-12  3.78062034E-12  1.00149881E-12 -1.35665648E-13  4.19218080E-12
 -1.23760466E-11  5.08526663E-01 -4.73882022E-01 -3.82058996E-08  1.10712232E-02
 -1.03169686E-02 -8.34601860E-10 -2.16897531E-03  2.02120848E-03  1.69920974E-10
  2.55102406E-12 -7.86999422E-06  7.33383074E-06 -1.05724541E-13  1.34075732E-12
  1.41691436E-13 -4.65629112E-06  4.33907338E-06 -3.16810995E-14 -4.59119366E-13
  3.07086268E-13  2.10267811E-05 -1.95942915E-05  1.08729707E-13  4.88458873E-13
  5.69708095E-04 -5.30895303E-04 -5.34914264E-11 -8.04264438E-12 -5.55574014E-05
  5.17724545E-05  6.19610136E-16 -2.31558658E-13  1.37734341E-13 -3.86574266E-08
  3.60239956E-08  1.50290938E-13  6.52485864E-14 -5.21352232E-14 -2.88027478E-14
  1.75964886E-13  4.47851127E-14  2.08500894E-12 -4.14290793E-12  1.14831513E-12
  1.32778865E-11  5.17981053E-01 -4.82692484E-01  2.43179203E-09  1.12774370E-02
 -1.05091375E-02  4.96879759E-11 -2.21029381E-03  2.05971282E-03 -1.87404198E-12
  9.09927448E-13  8.08383160E-06 -7.53310393E-06  3.94914486E-13 -2.70888094E-13
 -2.75896189E-12  4.34203075E-06 -4.04621695E-06 -2.00953200E-14  3.78675235E-14
  6.28915456E-12 -2.01160620E-05  1.87456004E-05  6.97308300E-14 -3.63044093E-14
  5.81905610E-04 -5.42262059E-04 -1.30438098E-11  4.28448780E-12  5.23706776E-05
 -4.88027749E-05 -5.65710708E-15  1.45838194E-15 -5.40649698E-14 -1.80156610E-08
  1.67880678E-08 -4.92014370E-14  5.27526920E-14  3.89546696E-14  5.69819124E-14
 -3.97674101E-13  1.32597913E-12 -8.32312566E-13  3.51747194E-13 -1.57772734E-12
  4.08567614E-12  4.73882186E-01  5.08526666E-01  1.43840792E-08  1.03169722E-02
  1.10712233E-02  3.14160367E-10 -2.02120920E-03 -2.16897533E-03 -6.36838035E-11
 -1.05012812E-12 -7.33383426E-06 -7.86999400E-06 -1.31761160E-12 -1.54200323E-13
  2.62103888E-14 -4.33906804E-06 -4.65629102E-06  4.36821479E-13 -5.99069154E-14
 -4.17833711E-13  1.95942759E-05  2.10267809E-05 -4.58946501E-13  1.17203260E-13
  5.30895514E-04  5.69708099E-04  1.94364615E-11  2.83142017E-12 -5.17723999E-05
 -5.55574004E-05  2.09641308E-13 -5.35528429E-14 -1.38691952E-13 -3.60236413E-08
 -3.86574162E-08 -4.62153153E-14 -5.80429575E-14  1.88835373E-14 -2.14872948E-14
  9.69813843E-13 -3.50087244E-12 -4.77530404E-13  1.49576505E-12 -7.30087294E-13
 -4.61995618E-12  4.82692324E-01  5.17981050E-01 -2.57756141E-09  1.05091340E-02
  1.12774369E-02 -5.49528303E-11 -2.05971212E-03 -2.21029380E-03  8.06374255E-12
 -7.17975070E-13  7.53310011E-06  8.08383126E-06  2.60086637E-13  3.54655051E-13
  1.02224978E-12  4.04622235E-06  4.34203083E-06 -2.79922903E-14 -5.01141503E-14
 -2.42527131E-12 -1.87456162E-05 -2.01160624E-05  4.66205270E-14  9.60487415E-14
  5.42261851E-04  5.81905607E-04  2.56529499E-12 -1.24370261E-12  4.88028298E-05
  5.23706786E-05 -3.36816340E-14 -9.60637722E-14  2.69494621E-14 -1.67884916E-08
 -1.80156719E-08 -6.69757898E-14  1.10578717E-13 -3.27842193E-14  7.38558590E-14
 -2.61362765E-05  1.02555242E-04  3.93162346E-05 -8.71674977E-05 -5.71407527E-05
  5.03800698E-04  1.96010017E-08 -3.94573676E-08  7.03004711E-01  4.27088361E-10
 -8.59682890E-10  1.54149657E-02 -8.45871605E-11  1.70257111E-10 -3.29229830E-03
  9.42678259E-06 -1.36374570E-12  1.93927205E-12  1.03640038E-13 -1.59182013E-13
 -6.55904861E-05  6.99520852E-13 -1.43363682E-12 -8.31779745E-14  1.46592968E-13
  1.30649869E-04 -8.05848614E-13  1.59674885E-12  2.78723914E-14  2.40986138E-14
  2.37466535E-11 -4.79977308E-11  1.30301435E-03  2.39734200E-04  2.58187775E-12
 -5.88500495E-12 -5.36741215E-14 -1.14234976E-14  3.67960479E-06  6.50365780E-14
 -2.88194798E-13  4.98837917E-14 -1.12338364E-14  6.02595419E-14 -7.85881926E-14
  2.60173498E-05 -1.02196318E-04 -3.94404184E-05  8.74580008E-05  5.67176135E-05
 -5.03841793E-04 -1.24751551E-09  5.92807164E-09  7.00129969E-01 -2.76520756E-11
  1.30217099E-10  1.53524157E-02  6.40595907E-12 -2.77379353E-11 -3.28017338E-03
 -9.53392205E-06  3.76473791E-13  1.65816200E-13 -5.15599908E-14  7.42440838E-14
  6.57568765E-05  3.77109786E-13 -1.12669093E-12  1.55042367E-14 -4.48278396E-14
 -1.31081629E-04 -1.26200863E-12  2.80451629E-12 -4.65531739E-14  2.69067026E-14
 -3.16121081E-12  1.06294531E-11  1.30015171E-03 -2.39468177E-04  4.42050724E-12
 -9.34153419E-12  9.30311949E-15  1.43228545E-15  3.68733036E-06  1.24009581E-14
 -8.53868083E-16 -8.55142505E-14 -1.91160080E-14 -5.56133642E-14  3.65166355E-15
  2.89313893E-05 -8.72533191E-05  3.03743881E-05 -7.10818620E-05  1.03166549E-04
  1.10786570E-05 -1.68152252E-08  3.39624944E-08 -7.00153806E-01 -3.66339985E-10
  7.39677072E-10 -1.52340452E-02  7.24109271E-11 -1.45899320E-10  2.95239898E-03
  2.61491229E-05  1.28276847E-12 -1.69629700E-12 -3.23423153E-14  2.07157531E-13
 -4.07364274E-05 -6.21318133E-13  1.17072772E-12 -2.55630750E-14 -8.12588271E-14
  1.05637662E-04  5.29115708E-13 -5.05830515E-13  4.51803201E-14 -5.95051983E-14
 -2.01141943E-11  4.04000084E-11 -6.95968583E-04 -6.44316217E-05 -1.71350165E-12
  2.57439484E-12 -4.56242892E-14 -1.52123451E-14  1.89307003E-06 -5.70790104E-14
  2.65931734E-13 -5.31050727E-14  2.77093048E-14 -1.15742977E-13  8.64289185E-14
  2.90380776E-05 -8.76722600E-05  3.02129977E-05 -7.07240927E-05  1.03399821E-04
  9.01429348E-06 -1.45628168E-09  6.33930509E-09  7.03028452E-01 -3.14582766E-11
  1.37729183E-10  1.52970793E-02  5.41023899E-12 -2.56595096E-11 -2.96586422E-03
  2.61101949E-05  5.13382370E-13 -5.83636597E-14 -9.49050001E-14  6.73758023E-14
 -4.04673089E-05 -3.81000271E-13  4.12417046E-13  1.22412395E-14 -7.00964181E-14
  1.05101424E-04  1.22517931E-12 -2.16668860E-12  6.52283467E-14 -3.12333872E-14
 -3.79427286E-13  4.82852128E-12  7.01301779E-04 -6.54133744E-05 -3.55615609E-12
  6.61805729E-12  2.37425161E-14 -5.33319630E-14 -1.87797732E-06  5.25196423E-14
 -8.11933216E-14 -7.73106810E-14 -8.87068252E-15 -7.35348863E-15  9.99328766E-15
  7.94452083E-02 -3.14945964E-01  4.50244045E-01  3.32781371E-01  1.04453217E-02
 -3.40448849E-03  4.57138687E-12  7.64758080E-12  2.19848334E-04 -1.24334568E-11
 -5.16125309E-12 -4.80415479E-04  2.34619327E-12 -5.04682720E-11 -2.58477467E-04
  7.86278721E-06  4.66473401E-11 -1.45060545E-10 -8.25870543E-12  4.31597744E-11
 -1.70949025E-05  3.02809134E-11 -9.31446709E-11 -5.91556059E-12  3.03072521E-11
  1.26416944E-05  1.67767467E-11 -5.14945513E-11 -3.39205046E-12  1.77905662E-11
 -2.01593713E-12  7.09609163E-12 -3.21461788E-05 -4.32602649E-04  1.28060346E-12