[Molden Format]
[N_ATOMS]
                    2
[ATOMS] (AU)
CR1         1     24           0.00000000      0.00000000      0.00000000
CR2         2     24           0.00000000      0.00000000      7.55890454
[5D]
[7F]
[CHARGE] (MULLIKEN)
   3.0916027071725694E-008
  -3.0917128412966122E-008
[GTO] (AU)
   1
   s   8
  0.254477807E+06  0.242904776E-03
  0.381317971E+05  0.188435236E-02
  0.867529306E+04  0.980095844E-02
  0.245500998E+04  0.398250087E-01
  0.799162178E+03  0.129405437E+00
  0.286900215E+03  0.306290018E+00
  0.111254132E+03  0.434628350E+00
  0.438641526E+02  0.224695629E+00
   s   4
  0.279326692E+03 -0.243633579E-01
  0.862747324E+02 -0.115114954E+00
  0.135557561E+02  0.550922663E+00
  0.569781128E+01  0.536113547E+00
   s   2
  0.856365826E+01 -0.371230176E+00
  0.139882968E+01  0.116811695E+01
   s   1
  0.572881711E+00  0.100000000E+01
   s   1
  0.900961713E-01  0.100000000E+01
   s   1
  0.341258851E-01  0.100000000E+01
   p   6
  0.130643989E+04  0.282928007E-02
  0.309253114E+03  0.227766292E-01
  0.989962740E+02  0.105645619E+00
  0.367569165E+02  0.299499449E+00
  0.145666571E+02  0.477062454E+00
  0.587399374E+01  0.276542344E+00
   p   3
  0.228909997E+02 -0.194121061E-01
  0.308550018E+01  0.386188758E+00
  0.121323291E+01  0.676239089E+00
   p   1
  0.449316807E+00  0.100000000E+01
   p   1
  0.120675000E+00  0.100000000E+01
   d   4
  0.437200745E+02  0.220932593E-01
  0.123912427E+02  0.128014388E+00
  0.426394420E+01  0.386529103E+00
  0.155252218E+01  0.641033014E+00
   d   1
  0.537619295E+00  0.100000000E+01
   d   1
  0.164931731E+00  0.100000000E+01
   d   1
  0.510000000E-01  0.100000000E+01
   f   1
  0.114700000E+01  0.100000000E+01
 
   2
   s   8
  0.254477807E+06  0.242904776E-03
  0.381317971E+05  0.188435236E-02
  0.867529306E+04  0.980095844E-02
  0.245500998E+04  0.398250087E-01
  0.799162178E+03  0.129405437E+00
  0.286900215E+03  0.306290018E+00
  0.111254132E+03  0.434628350E+00
  0.438641526E+02  0.224695629E+00
   s   4
  0.279326692E+03 -0.243633579E-01
  0.862747324E+02 -0.115114954E+00
  0.135557561E+02  0.550922663E+00
  0.569781128E+01  0.536113547E+00
   s   2
  0.856365826E+01 -0.371230176E+00
  0.139882968E+01  0.116811695E+01
   s   1
  0.572881711E+00  0.100000000E+01
   s   1
  0.900961713E-01  0.100000000E+01
   s   1
  0.341258851E-01  0.100000000E+01
   p   6
  0.130643989E+04  0.282928007E-02
  0.309253114E+03  0.227766292E-01
  0.989962740E+02  0.105645619E+00
  0.367569165E+02  0.299499449E+00
  0.145666571E+02  0.477062454E+00
  0.587399374E+01  0.276542344E+00
   p   3
  0.228909997E+02 -0.194121061E-01
  0.308550018E+01  0.386188758E+00
  0.121323291E+01  0.676239089E+00
   p   1
  0.449316807E+00  0.100000000E+01
   p   1
  0.120675000E+00  0.100000000E+01
   d   4
  0.437200745E+02  0.220932593E-01
  0.123912427E+02  0.128014388E+00
  0.426394420E+01  0.386529103E+00
  0.155252218E+01  0.641033014E+00
   d   1
  0.537619295E+00  0.100000000E+01
   d   1
  0.164931731E+00  0.100000000E+01
   d   1
  0.510000000E-01  0.100000000E+01
   f   1
  0.114700000E+01  0.100000000E+01
 
[MO]
Sym=     1a  
Ene=  -220.3900
Spin= Alpha
Occup=    2.00000
   1        -0.68435639
   2        -0.00477449
   3         0.00156050
   4        -0.00101360
   5         0.00031684
   6        -0.00015994
   7         0.00000000
   8         0.00000000
   9        -0.00000052
  10        -0.00000000
  11         0.00000000
  12         0.00000520
  13         0.00000000
  14        -0.00000000
  15        -0.00001363
  16        -0.00000000
  17         0.00000000
  18         0.00001767
  19         0.00000251
  20        -0.00000000
  21         0.00000000
  22        -0.00000000
  23         0.00000000
  24        -0.00000864
  25         0.00000000
  26        -0.00000000
  27         0.00000000
  28        -0.00000000
  29         0.00001373
  30         0.00000000
  31        -0.00000000
  32         0.00000000
  33         0.00000000
  34         0.00001606
  35        -0.00000000
  36        -0.00000000
  37        -0.00000000
  38        -0.00000000
  39         0.00000043
  40        -0.00000000
  41         0.00000000
  42        -0.00000000
  43         0.00000000
  44        -0.00000000
  45        -0.00000000
  46         0.72615132
  47         0.00506613
  48        -0.00165537
  49         0.00107478
  50        -0.00033650
  51         0.00016870
  52        -0.00000000
  53         0.00000000
  54        -0.00000045
  55        -0.00000000
  56        -0.00000000
  57         0.00000500
  58         0.00000000
  59        -0.00000000
  60        -0.00001321
  61        -0.00000000
  62        -0.00000000
  63         0.00001765
  64        -0.00000249
  65         0.00000000
  66         0.00000000
  67        -0.00000000
  68         0.00000000
  69         0.00000861
  70        -0.00000000
  71        -0.00000000
  72        -0.00000000
  73        -0.00000000
  74        -0.00001405
  75        -0.00000000
  76         0.00000000
  77         0.00000000
  78         0.00000000
  79        -0.00001425
  80         0.00000000
  81        -0.00000000
  82         0.00000000
  83        -0.00000000
  84         0.00000041
  85        -0.00000000
  86         0.00000000
  87        -0.00000000
  88        -0.00000000
  89        -0.00000000
  90         0.00000000
Sym=     2a  
Ene=  -220.3900
Spin= Alpha
Occup=    2.00000
   1         0.72615167
   2         0.00506704
   3        -0.00164853
   4         0.00106334
   5        -0.00034144
   6         0.00015263
   7        -0.00000000
   8        -0.00000000
   9        -0.00000125
  10         0.00000000
  11        -0.00000000
  12         0.00000314
  13        -0.00000000
  14         0.00000000
  15        -0.00000670
  16         0.00000000
  17        -0.00000000
  18        -0.00000016
  19         0.00000019
  20        -0.00000000
  21         0.00000000
  22        -0.00000000
  23         0.00000000
  24        -0.00000018
  25         0.00000000
  26        -0.00000000
  27         0.00000000
  28         0.00000000
  29        -0.00000591
  30        -0.00000000
  31         0.00000000
  32        -0.00000000
  33        -0.00000000
  34         0.00003008
  35         0.00000000
  36         0.00000000
  37         0.00000000
  38         0.00000000
  39         0.00000029
  40         0.00000000
  41        -0.00000000
  42        -0.00000000
  43        -0.00000000
  44        -0.00000000
  45        -0.00000000
  46         0.68435676
  47         0.00477545
  48        -0.00155324
  49         0.00100146
  50        -0.00032208
  51         0.00014289
  52        -0.00000000
  53         0.00000000
  54         0.00000128
  55        -0.00000000
  56        -0.00000000
  57        -0.00000345
  58         0.00000000
  59        -0.00000000
  60         0.00000749
  61        -0.00000000
  62        -0.00000000
  63        -0.00000089
  64         0.00000034
  65        -0.00000000
  66         0.00000000
  67        -0.00000000
  68         0.00000000
  69        -0.00000069
  70        -0.00000000
  71        -0.00000000
  72         0.00000000
  73        -0.00000000
  74        -0.00000509
  75         0.00000000
  76         0.00000000
  77        -0.00000000
  78         0.00000000
  79         0.00003097
  80        -0.00000000
  81        -0.00000000
  82         0.00000000
  83         0.00000000
  84        -0.00000031
  85         0.00000000
  86         0.00000000
  87        -0.00000000
  88         0.00000000
  89        -0.00000000
  90         0.00000000
Sym=     3a  
Ene=   -26.2100
Spin= Alpha
Occup=    2.00000
   1        -0.21991246
   2         0.73099829
   3         0.02337527
   4        -0.00610178
   5         0.00158846
   6        -0.00069250
   7        -0.00000000
   8        -0.00000000
   9        -0.00009016
  10        -0.00000000
  11         0.00000000
  12         0.00001468
  13         0.00000000
  14        -0.00000000
  15        -0.00005588
  16        -0.00000000
  17        -0.00000000
  18         0.00007920
  19         0.00000596
  20        -0.00000000
  21         0.00000000
  22        -0.00000000
  23         0.00000000
  24        -0.00003942
  25         0.00000000
  26         0.00000000
  27         0.00000000
  28        -0.00000000
  29         0.00006126
  30        -0.00000000
  31        -0.00000000
  32         0.00000000
  33         0.00000000
  34         0.00006715
  35        -0.00000000
  36        -0.00000000
  37        -0.00000000
  38        -0.00000000
  39         0.00000140
  40        -0.00000000
  41         0.00000000
  42        -0.00000000
  43         0.00000000
  44        -0.00000000
  45         0.00000000
  46         0.22125482
  47        -0.73546031
  48        -0.02351763
  49         0.00613888
  50        -0.00159859
  51         0.00069591
  52         0.00000000
  53        -0.00000000
  54        -0.00009066
  55        -0.00000000
  56        -0.00000000
  57         0.00001452
  58         0.00000000
  59        -0.00000000
  60        -0.00005569
  61         0.00000000
  62         0.00000000
  63         0.00007921
  64        -0.00000598
  65         0.00000000
  66         0.00000000
  67        -0.00000000
  68         0.00000000
  69         0.00003937
  70        -0.00000000
  71        -0.00000000
  72        -0.00000000
  73        -0.00000000
  74        -0.00006141
  75        -0.00000000
  76         0.00000000
  77         0.00000000
  78         0.00000000
  79        -0.00006635
  80         0.00000000
  81        -0.00000000
  82         0.00000000
  83        -0.00000000
  84         0.00000139
  85        -0.00000000
  86         0.00000000
  87        -0.00000000
  88        -0.00000000
  89        -0.00000000
  90         0.00000000
Sym=     4a  
Ene=   -26.2100
Spin= Alpha
Occup=    2.00000
   1         0.22125915
   2        -0.73546573
   3        -0.02346576
   4         0.00611513
   5        -0.00166889
   6         0.00056206
   7         0.00000000
   8         0.00000000
   9         0.00008177
  10         0.00000000
  11        -0.00000000
  12         0.00002609
  13        -0.00000000
  14         0.00000000
  15        -0.00003123
  16         0.00000000
  17         0.00000000
  18        -0.00000147
  19        -0.00000389
  20         0.00000000
  21         0.00000000
  22         0.00000000
  23         0.00000000
  24        -0.00000713
  25         0.00000000
  26        -0.00000000
  27        -0.00000000
  28         0.00000000
  29        -0.00002522
  30        -0.00000000
  31         0.00000000
  32        -0.00000000
  33         0.00000000
  34         0.00013181
  35         0.00000000
  36        -0.00000000
  37        -0.00000000
  38         0.00000000
  39         0.00000146
  40        -0.00000000
  41         0.00000000
  42        -0.00000000
  43        -0.00000000
  44        -0.00000000
  45        -0.00000000
  46         0.21991681
  47        -0.73100375
  48        -0.02332308
  49         0.00607789
  50        -0.00165920
  51         0.00055784
  52         0.00000000
  53        -0.00000000
  54        -0.00008122
  55        -0.00000000
  56        -0.00000000
  57        -0.00002617
  58         0.00000000
  59        -0.00000000
  60         0.00003157
  61        -0.00000000
  62        -0.00000000
  63         0.00000099
  64        -0.00000386
  65         0.00000000
  66        -0.00000000
  67        -0.00000000
  68        -0.00000000
  69        -0.00000737
  70        -0.00000000
  71         0.00000000
  72         0.00000000
  73        -0.00000000
  74        -0.00002484
  75         0.00000000
  76        -0.00000000
  77        -0.00000000
  78        -0.00000000
  79         0.00013222
  80         0.00000000
  81         0.00000000
  82        -0.00000000
  83         0.00000000
  84        -0.00000146
  85         0.00000000
  86         0.00000000
  87         0.00000000
  88        -0.00000000
  89         0.00000000
  90        -0.00000000
Sym=     5a  
Ene=   -22.1400
Spin= Alpha
Occup=    2.00000
   1         0.00000000
   2         0.00000000
   3         0.00000000
   4        -0.00000000
   5        -0.00000000
   6         0.00000000
   7        -0.54147291
   8        -0.43813784
   9         0.00000031
  10        -0.01181046
  11        -0.00955654
  12         0.00000001
  13         0.00236680
  14         0.00191512
  15        -0.00000000
  16        -0.00069924
  17        -0.00056579
  18         0.00000000
  19         0.00000000
  20         0.00001225
  21         0.00000991
  22         0.00000000
  23         0.00000000
  24        -0.00000000
  25        -0.00001816
  26        -0.00001469
  27        -0.00000000
  28        -0.00000000
  29         0.00000000
  30         0.00005269
  31         0.00004263
  32         0.00000000
  33         0.00000000
  34         0.00000000
  35        -0.00018425
  36        -0.00014907
  37        -0.00000000
  38        -0.00000000
  39         0.00000000
  40        -0.00000119
  41        -0.00000096
  42        -0.00000000
  43         0.00000000
  44        -0.00000000
  45        -0.00000000
  46         0.00000000
  47        -0.00000000
  48        -0.00000000
  49         0.00000000
  50         0.00000000
  51        -0.00000000
  52         0.54932928
  53         0.44443629
  54         0.00000103
  55         0.01198151
  56         0.00969367
  57         0.00000002
  58        -0.00240032
  59        -0.00194199
  60        -0.00000000
  61         0.00070805
  62         0.00057286
  63         0.00000000
  64         0.00000000
  65         0.00001237
  66         0.00001001
  67         0.00000000
  68         0.00000000
  69         0.00000000
  70        -0.00001809
  71        -0.00001463
  72         0.00000000
  73         0.00000000
  74        -0.00000000
  75         0.00005237
  76         0.00004238
  77        -0.00000000
  78         0.00000000
  79        -0.00000000
  80        -0.00018342
  81        -0.00014841
  82         0.00000000
  83        -0.00000000
  84         0.00000000
  85         0.00000119
  86         0.00000096
  87         0.00000000
  88         0.00000000
  89         0.00000000
  90         0.00000000
Sym=     6a  
Ene=   -22.1400
Spin= Alpha
Occup=    2.00000
   1         0.00000000
   2        -0.00000000
   3        -0.00000000
   4        -0.00000000
   5         0.00000000
   6        -0.00000000
   7         0.43813274
   8        -0.54153901
   9        -0.00000027
  10         0.00955643
  11        -0.01181190
  12        -0.00000001
  13        -0.00191510
  14         0.00236708
  15         0.00000000
  16         0.00056578
  17        -0.00069931
  18        -0.00000000
  19         0.00000000
  20        -0.00000991
  21         0.00001225
  22         0.00000000
  23         0.00000000
  24        -0.00000000
  25         0.00001469
  26        -0.00001815
  27        -0.00000000
  28         0.00000000
  29         0.00000000
  30        -0.00004263
  31         0.00005268
  32         0.00000000
  33        -0.00000000
  34        -0.00000000
  35         0.00014907
  36        -0.00018424
  37         0.00000000
  38         0.00000000
  39         0.00000000
  40         0.00000096
  41        -0.00000119
  42        -0.00000000
  43        -0.00000000
  44         0.00000000
  45         0.00000000
  46         0.00000000
  47        -0.00000000
  48        -0.00000000
  49        -0.00000000
  50         0.00000000
  51         0.00000000
  52        -0.44444132
  53         0.54926411
  54         0.00000016
  55        -0.00969378
  56         0.01198009
  57         0.00000000
  58         0.00194201
  59        -0.00240004
  60        -0.00000000
  61        -0.00057286
  62         0.00070798
  63         0.00000000
  64         0.00000000
  65        -0.00001001
  66         0.00001237
  67        -0.00000000
  68        -0.00000000
  69        -0.00000000
  70         0.00001463
  71        -0.00001809
  72         0.00000000
  73         0.00000000
  74         0.00000000
  75        -0.00004238
  76         0.00005237
  77        -0.00000000
  78        -0.00000000
  79         0.00000000
  80         0.00014841
  81        -0.00018343
  82        -0.00000000
  83         0.00000000
  84        -0.00000000
  85        -0.00000096
  86         0.00000119
  87        -0.00000000
  88         0.00000000
  89         0.00000000
  90        -0.00000000
Sym=     7a  
Ene=   -22.1400
Spin= Alpha
Occup=    2.00000
   1         0.00000000
   2        -0.00000000
   3        -0.00000000
   4         0.00000000
   5        -0.00000000
   6        -0.00000000
   7        -0.54755950
   8        -0.44662356
   9         0.00000020
  10        -0.01192138
  11        -0.00972381
  12         0.00000000
  13         0.00233639
  14         0.00190570
  15        -0.00000000
  16        -0.00061495
  17        -0.00050159
  18        -0.00000000
  19        -0.00000000
  20         0.00000850
  21         0.00000694
  22         0.00000000
  23        -0.00000000
  24         0.00000000
  25         0.00000464
  26         0.00000379
  27        -0.00000000
  28         0.00000000
  29        -0.00000000
  30        -0.00002142
  31        -0.00001748
  32        -0.00000000
  33        -0.00000000
  34        -0.00000000
  35         0.00005584
  36         0.00004556
  37         0.00000000
  38         0.00000000
  39         0.00000000
  40         0.00000002
  41         0.00000002
  42        -0.00000000
  43         0.00000000
  44        -0.00000000
  45         0.00000000
  46        -0.00000000
  47         0.00000000
  48        -0.00000000
  49         0.00000000
  50        -0.00000000
  51         0.00000000
  52        -0.53972839
  53        -0.44029444
  54        -0.00000101
  55        -0.01175057
  56        -0.00958577
  57        -0.00000002
  58         0.00230217
  59         0.00187804
  60         0.00000000
  61        -0.00060485
  62        -0.00049342
  63        -0.00000000
  64         0.00000000
  65        -0.00000833
  66        -0.00000679
  67        -0.00000000
  68        -0.00000000
  69        -0.00000000
  70        -0.00000490
  71        -0.00000400
  72        -0.00000000
  73         0.00000000
  74        -0.00000000
  75         0.00002218
  76         0.00001809
  77         0.00000000
  78        -0.00000000
  79         0.00000000
  80        -0.00005848
  81        -0.00004769
  82        -0.00000000
  83         0.00000000
  84         0.00000000
  85         0.00000004
  86         0.00000003
  87         0.00000000
  88        -0.00000000
  89        -0.00000000
  90        -0.00000000
Sym=     8a  
Ene=   -22.1400
Spin= Alpha
Occup=    2.00000
   1         0.00000000
   2        -0.00000000
   3        -0.00000000
   4         0.00000000
   5         0.00000000
   6        -0.00000000
   7         0.44662885
   8        -0.54749436
   9        -0.00000030
  10         0.00972393
  11        -0.01191996
  12        -0.00000001
  13        -0.00190573
  14         0.00233611
  15         0.00000000
  16         0.00050160
  17        -0.00061487
  18        -0.00000000
  19        -0.00000000
  20        -0.00000694
  21         0.00000850
  22         0.00000000
  23         0.00000000
  24         0.00000000
  25        -0.00000379
  26         0.00000465
  27        -0.00000000
  28        -0.00000000
  29        -0.00000000
  30         0.00001748
  31        -0.00002143
  32         0.00000000
  33         0.00000000
  34        -0.00000000
  35        -0.00004556
  36         0.00005586
  37         0.00000000
  38         0.00000000
  39         0.00000000
  40        -0.00000002
  41         0.00000002
  42         0.00000000
  43         0.00000000
  44        -0.00000000
  45        -0.00000000
  46        -0.00000000
  47         0.00000000
  48         0.00000000
  49        -0.00000000
  50        -0.00000000
  51         0.00000000
  52         0.44028908
  53        -0.53979447
  54        -0.00000019
  55         0.00958565
  56        -0.01175201
  57        -0.00000000
  58        -0.00187802
  59         0.00230246
  60         0.00000000
  61         0.00049342
  62        -0.00060494
  63        -0.00000000
  64        -0.00000000
  65         0.00000679
  66        -0.00000833
  67         0.00000000
  68        -0.00000000
  69        -0.00000000
  70         0.00000400
  71        -0.00000490
  72        -0.00000000
  73         0.00000000
  74         0.00000000
  75        -0.00001809
  76         0.00002217
  77         0.00000000
  78         0.00000000
  79         0.00000000
  80         0.00004770
  81        -0.00005846
  82         0.00000000
  83        -0.00000000
  84        -0.00000000
  85        -0.00000003
  86         0.00000004
  87         0.00000000
  88         0.00000000
  89         0.00000000
  90         0.00000000
Sym=     9a  
Ene=   -22.1400
Spin= Alpha
Occup=    2.00000
   1        -0.00002592
   2         0.00010186
   3         0.00003942
   4        -0.00008742
   5        -0.00005676
   6         0.00050383
   7         0.00000039
   8        -0.00000007
   9         0.70045449
  10         0.00000001
  11        -0.00000000
  12         0.01535948
  13        -0.00000000
  14         0.00000000
  15        -0.00328154
  16         0.00000000
  17         0.00000000
  18         0.00130048
  19         0.00000957
  20         0.00000000
  21         0.00000000
  22         0.00000000
  23        -0.00000000
  24        -0.00006575
  25        -0.00000000
  26        -0.00000000
  27        -0.00000000
  28         0.00000000
  29         0.00013105
  30        -0.00000000
  31        -0.00000000
  32        -0.00000000
  33        -0.00000000
  34         0.00023950
  35         0.00000000
  36         0.00000000
  37         0.00000000
  38         0.00000000
  39         0.00000369
  40         0.00000000
  41        -0.00000000
  42         0.00000000
  43        -0.00000000
  44         0.00000000
  45         0.00000000
  46         0.00002601
  47        -0.00010214
  48        -0.00003933
  49         0.00008720
  50         0.00005709
  51        -0.00050380
  52        -0.00000072
  53        -0.00000083
  54         0.70268136
  55        -0.00000002
  56        -0.00000002
  57         0.01540793
  58         0.00000000
  59         0.00000000
  60        -0.00329093
  61        -0.00000000
  62        -0.00000000
  63         0.00130270
  64        -0.00000949
  65         0.00000000
  66        -0.00000000
  67         0.00000000
  68        -0.00000000
  69         0.00006562
  70        -0.00000000
  71         0.00000000
  72         0.00000000
  73         0.00000000
  74        -0.00013071
  75        -0.00000000
  76        -0.00000000
  77        -0.00000000
  78        -0.00000000
  79        -0.00023970
  80         0.00000000
  81         0.00000000
  82        -0.00000000
  83         0.00000000
  84         0.00000368
  85         0.00000000
  86         0.00000000
  87         0.00000000
  88         0.00000000
  89         0.00000000
  90        -0.00000000
Sym=    10a  
Ene=   -22.1400
Spin= Alpha
Occup=    2.00000
   1         0.00002891
   2        -0.00008725
   3         0.00003023
   4        -0.00007077
   5         0.00010337
   6         0.00000925
   7        -0.00000036
   8         0.00000004
   9        -0.70270511
  10        -0.00000001
  11         0.00000000
  12        -0.01528999
  13         0.00000000
  14        -0.00000000
  15         0.00296435
  16        -0.00000000
  17         0.00000000
  18        -0.00070070
  19         0.00002607
  20         0.00000000
  21        -0.00000000
  22         0.00000000
  23        -0.00000000
  24        -0.00004048
  25         0.00000000
  26         0.00000000
  27         0.00000000
  28         0.00000000
  29         0.00010515
  30        -0.00000000
  31        -0.00000000
  32         0.00000000
  33        -0.00000000
  34        -0.00006530
  35         0.00000000
  36         0.00000000
  37         0.00000000
  38         0.00000000
  39         0.00000188
  40        -0.00000000
  41         0.00000000
  42        -0.00000000
  43        -0.00000000
  44        -0.00000000
  45         0.00000000
  46         0.00002883
  47        -0.00008692
  48         0.00003036
  49        -0.00007104
  50         0.00010319
  51         0.00001085
  52        -0.00000064
  53        -0.00000073
  54         0.70047832
  55        -0.00000001
  56        -0.00000002
  57         0.01524116
  58         0.00000000
  59         0.00000000
  60        -0.00295391
  61        -0.00000000
  62        -0.00000000
  63         0.00069657
  64         0.00002610
  65         0.00000000
  66        -0.00000000
  67        -0.00000000
  68         0.00000000
  69        -0.00004069
  70        -0.00000000
  71         0.00000000
  72         0.00000000
  73        -0.00000000
  74         0.00010557
  75         0.00000000
  76        -0.00000000
  77        -0.00000000
  78        -0.00000000
  79        -0.00006454
  80        -0.00000000
  81         0.00000000
  82         0.00000000
  83         0.00000000
  84        -0.00000189
  85        -0.00000000
  86         0.00000000
  87         0.00000000
  88         0.00000000
  89        -0.00000000
  90         0.00000000
Sym=    11a  
Ene=    -3.2854
Spin= Alpha
Occup=    2.00000
   1        -0.07901983
   2         0.31325959
   3        -0.44783347
   4        -0.33099982
   5        -0.01038850
   6         0.00338440
   7        -0.00000000
   8        -0.00000000
   9        -0.00021816
  10         0.00000000
  11         0.00000000
  12         0.00047702
  13         0.00000000
  14         0.00000000
  15         0.00025463
  16        -0.00000000
  17         0.00000000
  18         0.00003424
  19        -0.00000758
  20        -0.00000000
  21         0.00000000
  22         0.00000000
  23         0.00000000
  24         0.00001631
  25        -0.00000000
  26         0.00000000
  27         0.00000000
  28         0.00000000
  29        -0.00001117
  30         0.00000000
  31        -0.00000000
  32         0.00000000
  33         0.00000000
  34         0.00043412
  35        -0.00000000
  36        -0.00000000
  37        -0.00000000
  38        -0.00000000
  39         0.00000774
  40         0.00000000
  41         0.00000000
  42         0.00000000
  43         0.00000000
  44         0.00000000
  45         0.00000000
  46        -0.07926813
  47         0.31424379
  48        -0.44924091
  49        -0.33203901
  50        -0.01042144
  51         0.00339606
  52        -0.00000000
  53         0.00000000
  54         0.00021881
  55         0.00000000
  56        -0.00000000
  57        -0.00047827
  58         0.00000000
  59        -0.00000000
  60        -0.00025642
  61         0.00000000
  62        -0.00000000
  63        -0.00003299
  64        -0.00000770
  65         0.00000000
  66        -0.00000000
  67        -0.00000000
  68         0.00000000
  69         0.00001676
  70         0.00000000
  71        -0.00000000
  72        -0.00000000
  73         0.00000000
  74        -0.00001201
  75        -0.00000000
  76        -0.00000000
  77        -0.00000000
  78        -0.00000000
  79         0.00043322
  80        -0.00000000
  81        -0.00000000
  82         0.00000000
  83         0.00000000
  84        -0.00000774
  85        -0.00000000
  86        -0.00000000
  87         0.00000000
  88         0.00000000
  89        -0.00000000
  90         0.00000000
Sym=    12a  
Ene=    -3.2854
Spin= Alpha
Occup=    2.00000
   1         0.07927115
   2        -0.31421454
   3         0.44934023
   4         0.33177008
   5         0.01051644
   6        -0.00372113
   7         0.00000000
   8         0.00000000
   9         0.00020799
  10        -0.00000000
  11        -0.00000000
  12        -0.00039882
  13         0.00000000
  14        -0.00000000
  15        -0.00057175
  16        -0.00000000
  17         0.00000000
  18         0.00039928
  19         0.00003642
  20        -0.00000000
  21        -0.00000000
  22        -0.00000000
  23        -0.00000000
  24        -0.00014209
  25         0.00000000
  26        -0.00000000
  27        -0.00000000
  28        -0.00000000
  29         0.00026807
  30        -0.00000000
  31         0.00000000
  32        -0.00000000
  33         0.00000000
  34         0.00028413
  35         0.00000000
  36         0.00000000
  37         0.00000000
  38        -0.00000000
  39        -0.00000034
  40        -0.00000000
  41         0.00000000
  42        -0.00000000
  43        -0.00000000
  44        -0.00000000
  45        -0.00000000
  46        -0.07902286
  47         0.31323025
  48        -0.44793309
  49        -0.33073005
  50        -0.01048380
  51         0.00371050
  52        -0.00000000
  53         0.00000000
  54         0.00020730
  55         0.00000000
  56        -0.00000000
  57        -0.00039732
  58         0.00000000
  59        -0.00000000
  60        -0.00057094
  61        -0.00000000
  62        -0.00000000
  63         0.00039938
  64        -0.00003640
  65         0.00000000
  66        -0.00000000
  67        -0.00000000
  68         0.00000000
  69         0.00014204
  70         0.00000000
  71        -0.00000000
  72         0.00000000
  73         0.00000000
  74        -0.00026803
  75         0.00000000
  76        -0.00000000
  77        -0.00000000
  78        -0.00000000
  79        -0.00028549
  80        -0.00000000
  81         0.00000000
  82        -0.00000000
  83        -0.00000000
  84        -0.00000032
  85        -0.00000000
  86         0.00000000
  87        -0.00000000
  88        -0.00000000
  89         0.00000000
  90         0.00000000
Sym=    13a  
Ene=    -2.0514
Spin= Alpha
Occup=    2.00000
   1        -0.00008964
   2         0.00023917
   3        -0.00076445
   4         0.00028032
   5        -0.00010468
   6        -0.00047871
   7        -0.00000065