HF file generated by AutoMR of MOKIT
Stability RHF                                                         Gen
Number of atoms                            I                2
Info1-9                                    I   N=           9
           6           5           0           0           0         110
           7           1           2
Charge                                     I                0
Multiplicity                               I                1
Number of electrons                        I               48
Number of alpha electrons                  I               24
Number of beta electrons                   I               24
Number of basis functions                  I               90
Number of independent functions            I               90
Number of point charges in /Mol/           I                0
Number of translation vectors              I                0
Atomic numbers                             I   N=           2
          24          24
Nuclear charges                            R   N=           2
  2.40000000E+01  2.40000000E+01
Current cartesian coordinates              R   N=           6
  0.00000000E+00  0.00000000E+00  0.00000000E+00  0.00000000E+00  0.00000000E+00
  7.55890453E+00
Force Field                                I                0
Int Atom Types                             I   N=           2
           0           0
MM charges                                 R   N=           2
  0.00000000E+00  0.00000000E+00
Integer atomic weights                     I   N=           2
          52          52
Real atomic weights                        R   N=           2
  5.19405097E+01  5.19405097E+01
Atom fragment info                         I   N=           2
           1           2
Atom residue num                           I   N=           2
           0           0
Nuclear spins                              I   N=           2
           0           0
Nuclear ZEff                               R   N=           2
 -2.47200000E+01 -2.47200000E+01
Nuclear QMom                               R   N=           2
  0.00000000E+00  0.00000000E+00
Nuclear GFac                               R   N=           2
  0.00000000E+00  0.00000000E+00
MicOpt                                     I   N=           2
          -1          -1
Number of contracted shells                I               30
Number of primitive shells                 I               72
Pure/Cartesian d shells                    I                0
Pure/Cartesian f shells                    I                0
Highest angular momentum                   I                3
Largest degree of contraction              I                8
Shell types                                I   N=          30
           0           0           0           0           0           0
           1           1           1          -2          -2          -2
           1          -2          -3           0           0           0
           0           0           0           1           1           1
          -2          -2          -2           1          -2          -3
Number of primitives per shell             I   N=          30
           8           4           2           1           1           1
           6           3           1           4           1           1
           1           1           1           8           4           2
           1           1           1           6           3           1
           4           1           1           1           1           1
Shell to atom map                          I   N=          30
           1           1           1           1           1           1
           1           1           1           1           1           1
           1           1           1           2           2           2
           2           2           2           2           2           2
           2           2           2           2           2           2
Primitive exponents                        R   N=          72
  2.54477807E+05  3.81317971E+04  8.67529306E+03  2.45500998E+03  7.99162178E+02
  2.86900215E+02  1.11254132E+02  4.38641526E+01  2.79326692E+02  8.62747324E+01
  1.35557561E+01  5.69781128E+00  8.56365826E+00  1.39882968E+00  5.72881711E-01
  9.00961713E-02  3.41258851E-02  1.30643989E+03  3.09253114E+02  9.89962740E+01
  3.67569165E+01  1.45666571E+01  5.87399374E+00  2.28909997E+01  3.08550018E+00
  1.21323291E+00  4.49316807E-01  4.37200745E+01  1.23912427E+01  4.26394420E+00
  1.55252218E+00  5.37619295E-01  1.64931731E-01  1.20675000E-01  5.10000000E-02
  1.14700000E+00  2.54477807E+05  3.81317971E+04  8.67529306E+03  2.45500998E+03
  7.99162178E+02  2.86900215E+02  1.11254132E+02  4.38641526E+01  2.79326692E+02
  8.62747324E+01  1.35557561E+01  5.69781128E+00  8.56365826E+00  1.39882968E+00
  5.72881711E-01  9.00961713E-02  3.41258851E-02  1.30643989E+03  3.09253114E+02
  9.89962740E+01  3.67569165E+01  1.45666571E+01  5.87399374E+00  2.28909997E+01
  3.08550018E+00  1.21323291E+00  4.49316807E-01  4.37200745E+01  1.23912427E+01
  4.26394420E+00  1.55252218E+00  5.37619295E-01  1.64931731E-01  1.20675000E-01
  5.10000000E-02  1.14700000E+00
Contraction coefficients                   R   N=          72
  2.42904776E-04  1.88435236E-03  9.80095844E-03  3.98250087E-02  1.29405437E-01
  3.06290018E-01  4.34628350E-01  2.24695629E-01 -2.43633579E-02 -1.15114954E-01
  5.50922663E-01  5.36113547E-01 -3.71230177E-01  1.16811695E+00  1.00000000E+00
  1.00000000E+00  1.00000000E+00  2.82928007E-03  2.27766292E-02  1.05645619E-01
  2.99499449E-01  4.77062454E-01  2.76542344E-01 -1.94121061E-02  3.86188758E-01
  6.76239089E-01  1.00000000E+00  2.20932593E-02  1.28014388E-01  3.86529103E-01
  6.41033014E-01  1.00000000E+00  1.00000000E+00  1.00000000E+00  1.00000000E+00
  1.00000000E+00  2.42904776E-04  1.88435236E-03  9.80095844E-03  3.98250087E-02
  1.29405437E-01  3.06290018E-01  4.34628350E-01  2.24695629E-01 -2.43633579E-02
 -1.15114954E-01  5.50922663E-01  5.36113547E-01 -3.71230177E-01  1.16811695E+00
  1.00000000E+00  1.00000000E+00  1.00000000E+00  2.82928007E-03  2.27766292E-02
  1.05645619E-01  2.99499449E-01  4.77062454E-01  2.76542344E-01 -1.94121061E-02
  3.86188758E-01  6.76239089E-01  1.00000000E+00  2.20932593E-02  1.28014388E-01
  3.86529103E-01  6.41033014E-01  1.00000000E+00  1.00000000E+00  1.00000000E+00
  1.00000000E+00  1.00000000E+00
Coordinates of each shell                  R   N=          90
  0.00000000E+00  0.00000000E+00  0.00000000E+00  0.00000000E+00  0.00000000E+00
  0.00000000E+00  0.00000000E+00  0.00000000E+00  0.00000000E+00  0.00000000E+00
  0.00000000E+00  0.00000000E+00  0.00000000E+00  0.00000000E+00  0.00000000E+00
  0.00000000E+00  0.00000000E+00  0.00000000E+00  0.00000000E+00  0.00000000E+00
  0.00000000E+00  0.00000000E+00  0.00000000E+00  0.00000000E+00  0.00000000E+00
  0.00000000E+00  0.00000000E+00  0.00000000E+00  0.00000000E+00  0.00000000E+00
  0.00000000E+00  0.00000000E+00  0.00000000E+00  0.00000000E+00  0.00000000E+00
  0.00000000E+00  0.00000000E+00  0.00000000E+00  0.00000000E+00  0.00000000E+00
  0.00000000E+00  0.00000000E+00  0.00000000E+00  0.00000000E+00  0.00000000E+00
  0.00000000E+00  0.00000000E+00  7.55890453E+00  0.00000000E+00  0.00000000E+00
  7.55890453E+00  0.00000000E+00  0.00000000E+00  7.55890453E+00  0.00000000E+00
  0.00000000E+00  7.55890453E+00  0.00000000E+00  0.00000000E+00  7.55890453E+00
  0.00000000E+00  0.00000000E+00  7.55890453E+00  0.00000000E+00  0.00000000E+00
  7.55890453E+00  0.00000000E+00  0.00000000E+00  7.55890453E+00  0.00000000E+00
  0.00000000E+00  7.55890453E+00  0.00000000E+00  0.00000000E+00  7.55890453E+00
  0.00000000E+00  0.00000000E+00  7.55890453E+00  0.00000000E+00  0.00000000E+00
  7.55890453E+00  0.00000000E+00  0.00000000E+00  7.55890453E+00  0.00000000E+00
  0.00000000E+00  7.55890453E+00  0.00000000E+00  0.00000000E+00  7.55890453E+00
Constraint Structure                       R   N=           6
  0.00000000E+00  0.00000000E+00  0.00000000E+00  0.00000000E+00  0.00000000E+00
  7.55890453E+00
Num ILSW                                   I              100
ILSW                                       I   N=         100
           0           0           0           0           2           1
           0           0           0           0           0          -1
           0           0           0           0           0           0
           0           0           0           0           0           0
           1           1           0           0           0           0
           0           0      100000           0          -1           0
           0           0           0           0           0           0
           0           0           0           1           0           0
           0           0           1           0           0           0
           0           0           4          40           0           0
           0           0           0           0           0           0
           0           0           0           0           0           0
           0           0           0           0           0           0
           0           0           0           0           0           0
           0           0           0           0           0           0
           0           0           0           0           0           0
           0           0           0           0
Num RLSW                                   I               40
RLSW                                       R   N=          40
  1.00000000E+00  1.00000000E+00  1.00000000E+00  1.00000000E+00  1.00000000E+00
  0.00000000E+00  0.00000000E+00  1.00000000E+00  0.00000000E+00  0.00000000E+00
  0.00000000E+00  0.00000000E+00  1.00000000E+00  0.00000000E+00  0.00000000E+00
  0.00000000E+00  0.00000000E+00  1.00000000E+00  0.00000000E+00  0.00000000E+00
  0.00000000E+00  0.00000000E+00  1.00000000E+00  0.00000000E+00  0.00000000E+00
  0.00000000E+00  0.00000000E+00  1.00000000E+00  0.00000000E+00  0.00000000E+00
  0.00000000E+00  0.00000000E+00  1.00000000E+00  0.00000000E+00  0.00000000E+00
  0.00000000E+00  0.00000000E+00  0.00000000E+00  1.00000000E+00  1.00000000E+00
ECP-MxAtEC                                 I           250000
ECP-MaxLECP                                I               10
ECP-MaxAtL                                 I          2250000
ECP-MxTECP                                 I         11250000
ECP-LenNCZ                                 I                0
ECP-KFirst                                 I   N=          20
           0           0           0           0           0           0
           0           0           0           0           0           0
           0           0           0           0           0           0
           0           0
ECP-KLast                                  I   N=          20
           0           0           0           0           0           0
           0           0           0           0           0           0
           0           0           0           0           0           0
           0           0
ECP-LMax                                   I   N=           2
           0           0
ECP-LPSkip                                 I   N=           2
           1           1
ECP-RNFroz                                 R   N=           2
  0.00000000E+00  0.00000000E+00
ECP-NLP                                    I                0
ECP-CLP1                                   R      0.000000000000000E+00
ECP-CLP2                                   R      0.000000000000000E+00
ECP-ZLP                                    R      0.000000000000000E+00
MxBond                                     I                1
NBond                                      I   N=           2
           0           0
IBond                                      I   N=           2
           0           0
RBond                                      R   N=           2
  0.00000000E+00  0.00000000E+00
Virial Ratio                               R      2.000025260610248E+00
SCF Energy                                 R     -2.086670643535291E+03
Total Energy                               R     -2.086670643535291E+03
S**2                                       R      5.898514692580772E+00
S**2 after annihilation                    R      1.824398861277341E+01
RMS Density                                R      1.915880506482937E-09
External E-field                           R   N=          35
  0.00000000E+00  0.00000000E+00  0.00000000E+00  0.00000000E+00  0.00000000E+00
  0.00000000E+00  0.00000000E+00  0.00000000E+00  0.00000000E+00  0.00000000E+00
  0.00000000E+00  0.00000000E+00  0.00000000E+00  0.00000000E+00  0.00000000E+00
  0.00000000E+00  0.00000000E+00  0.00000000E+00  0.00000000E+00  0.00000000E+00
  0.00000000E+00  0.00000000E+00  0.00000000E+00  0.00000000E+00  0.00000000E+00
  0.00000000E+00  0.00000000E+00  0.00000000E+00  0.00000000E+00  0.00000000E+00
  0.00000000E+00  0.00000000E+00  0.00000000E+00  0.00000000E+00  0.00000000E+00
IOpCl                                      I                0
IROHF                                      I                0
Alpha Orbital Energies                     R   N=          90
  2.00000000E+00  2.00000000E+00  2.00000000E+00  2.00000000E+00  2.00000000E+00
  2.00000000E+00  2.00000000E+00  2.00000000E+00  2.00000000E+00  2.00000000E+00
  2.00000000E+00  2.00000000E+00  2.00000000E+00  2.00000000E+00  2.00000000E+00
  2.00000000E+00  2.00000000E+00  2.00000000E+00  1.70375455E+00  1.04680229E+00
  1.03085653E+00  1.03085648E+00  1.00556697E+00  1.00556694E+00  9.94433060E-01
  9.94433032E-01  9.69143525E-01  9.69143467E-01  9.53197714E-01  2.96245448E-01
  0.00000000E+00  0.00000000E+00  0.00000000E+00  0.00000000E+00  0.00000000E+00
  0.00000000E+00  0.00000000E+00  0.00000000E+00  0.00000000E+00  0.00000000E+00
  0.00000000E+00  0.00000000E+00  0.00000000E+00  0.00000000E+00  0.00000000E+00
  0.00000000E+00  0.00000000E+00  0.00000000E+00  0.00000000E+00  0.00000000E+00
  0.00000000E+00  0.00000000E+00  0.00000000E+00  0.00000000E+00  0.00000000E+00
  0.00000000E+00  0.00000000E+00  0.00000000E+00  0.00000000E+00  0.00000000E+00
  0.00000000E+00  0.00000000E+00  0.00000000E+00  0.00000000E+00  0.00000000E+00
  0.00000000E+00  0.00000000E+00  0.00000000E+00  0.00000000E+00  0.00000000E+00
  0.00000000E+00  0.00000000E+00  0.00000000E+00  0.00000000E+00  0.00000000E+00
  0.00000000E+00  0.00000000E+00  0.00000000E+00  0.00000000E+00  0.00000000E+00
  0.00000000E+00  0.00000000E+00  0.00000000E+00  0.00000000E+00  0.00000000E+00
  0.00000000E+00  0.00000000E+00  0.00000000E+00  0.00000000E+00  0.00000000E+00
Alpha MO coefficients                      R   N=        8100
  9.80908767E-01  6.84590937E-03 -2.23435599E-03  1.44690801E-03 -4.57637519E-04
  2.19400509E-04  1.97883219E-11  0.00000000E+00 -2.17161923E-06  0.00000000E+00
  0.00000000E+00 -1.75892218E-06  0.00000000E+00  0.00000000E+00  6.67791754E-06
 -2.23343085E-06 -5.53771296E-11  1.53078698E-10  4.47966074E-11 -4.63035027E-11
  6.65420603E-06 -4.14452915E-11  1.17052668E-10  2.95661073E-11 -3.55811989E-11
 -1.47008235E-05 -2.18271238E-11  6.07743706E-11  1.29672870E-11 -1.84826653E-11
  0.00000000E+00  0.00000000E+00 -1.41908029E-05  4.78385421E-06  0.00000000E+00
  0.00000000E+00  1.31058511E-12  0.00000000E+00 -1.94390625E-07  0.00000000E+00
  0.00000000E+00 -3.98956658E-13  0.00000000E+00  0.00000000E+00  0.00000000E+00
 -1.82910813E-01 -1.27593073E-03  4.21366553E-04 -2.77724434E-04  8.19288652E-05
 -5.20223155E-05 -2.35772311E-11 -1.60235261E-11  7.65518512E-07  0.00000000E+00
  0.00000000E+00 -5.95862734E-06  0.00000000E+00  0.00000000E+00  1.50003410E-05
  2.24755985E-06  0.00000000E+00  2.57490599E-11 -9.58978797E-12  0.00000000E+00
 -7.33578868E-06  0.00000000E+00  1.99306088E-11 -4.13382793E-12  0.00000000E+00
  8.34608832E-06  0.00000000E+00  0.00000000E+00 -2.33249509E-12  0.00000000E+00
  0.00000000E+00  0.00000000E+00 -1.47046239E-05  2.97745375E-05  0.00000000E+00
  0.00000000E+00 -1.73205082E-13  0.00000000E+00 -5.19282264E-07  0.00000000E+00
  0.00000000E+00  1.66803193E-13  0.00000000E+00  0.00000000E+00  0.00000000E+00
  1.82911313E-01  1.27724227E-03 -4.11578391E-04  2.61317871E-04 -8.89888310E-05
  2.90009120E-05  0.00000000E+00  0.00000000E+00 -1.65972391E-06  0.00000000E+00
  0.00000000E+00  5.70832295E-06  0.00000000E+00  0.00000000E+00 -1.35008940E-05
  1.54654108E-06 -1.17073470E-11  3.21568862E-11  8.75493948E-12 -1.03164494E-11
 -5.29327839E-06  0.00000000E+00  2.43149570E-11  5.67535315E-12  0.00000000E+00
  3.26735484E-06  0.00000000E+00  1.34464424E-11  2.56343520E-12  0.00000000E+00
  0.00000000E+00  0.00000000E+00  1.02810717E-05  3.37680992E-05  0.00000000E+00
  0.00000000E+00  3.46410163E-13  0.00000000E+00  4.81581004E-07  0.00000000E+00
  0.00000000E+00 -6.43762894E-13  0.00000000E+00  0.00000000E+00  0.00000000E+00
  9.80908860E-01  6.84615416E-03 -2.23253086E-03  1.44384863E-03 -4.58953944E-04
  2.15107711E-04  1.27588764E-10  8.92166919E-11  2.62379756E-06 -4.37578134E-11
 -2.09146485E-11 -4.16610945E-07  2.11636086E-11  1.25834247E-11 -1.36327040E-06
 -1.52592669E-06  5.65187786E-11 -1.56661016E-10  5.35619392E-11 -4.77853883E-11
  4.29926310E-06  4.24659740E-11 -1.19089575E-10  2.30709168E-11 -3.69949651E-11
 -1.25352586E-05  2.24753264E-11 -6.25608562E-11  1.34060733E-11 -1.91439530E-11
  0.00000000E+00  0.00000000E+00  9.53169596E-06  1.66327171E-05  0.00000000E+00
  0.00000000E+00  1.31635861E-12  0.00000000E+00  7.75896138E-09  0.00000000E+00
  0.00000000E+00  2.36550121E-12  0.00000000E+00  0.00000000E+00  0.00000000E+00
 -2.64500821E-01  8.79202651E-01  2.80943066E-02 -7.29002814E-03  1.83971206E-03
 -8.79501685E-04  3.08282900E-09  2.92853326E-09 -3.81019319E-04 -4.78063340E-10
  1.46475998E-09 -1.94159348E-05  3.66937471E-10 -2.80963301E-11 -3.54306708E-05
 -9.19217284E-05 -3.43013335E-08  1.05044803E-07  6.63144519E-09 -3.62600293E-08
 -1.18900179E-04 -3.01884497E-08  9.22414499E-08  5.91402975E-09 -3.17373343E-08
  2.43660263E-05 -1.43834501E-08  4.37172632E-08  2.66637675E-09 -1.49025216E-08
  5.68731495E-10 -2.24164533E-09  7.26365113E-05  2.85906294E-05 -2.79188460E-09
  6.92205578E-09  4.83819526E-10 -2.53961912E-09  1.77691109E-06  4.21448746E-11
 -1.35735622E-10  9.56278691E-11  3.23789379E-11  5.53138084E-12 -3.45831869E-12
  1.65398116E-01 -5.49787987E-01 -1.75789171E-02  4.57833701E-03 -1.14500608E-03
  5.80139963E-04 -1.42603998E-08 -1.19172046E-08 -2.40514734E-04  1.51811826E-10
 -1.20745291E-09  2.97338075E-08 -8.76041760E-10 -6.07540815E-10 -5.45640219E-05
  4.90932163E-05 -2.05427339E-08  6.21914065E-08 -4.01148741E-09  2.17420315E-08
  8.59947264E-05 -1.83055798E-08  5.53383354E-08 -3.43916008E-09  1.97928737E-08
 -3.22925956E-05 -8.27605656E-09  2.58328635E-08 -1.73054970E-09  9.35521909E-09
  0.00000000E+00  1.65122589E-09  7.54252759E-05 -9.05113995E-05 -1.66931693E-09
  4.42460012E-09 -2.72451592E-10  1.56202270E-09  2.17982067E-06  0.00000000E+00
  1.14675211E-10 -6.58421058E-11  1.67400049E-11  0.00000000E+00  2.79655650E-12
 -1.65399840E-01  5.49782392E-01  1.75431949E-02 -4.51357520E-03  1.16273461E-03
 -4.81112289E-04  1.86567525E-09  1.98153205E-09 -2.33099765E-04 -1.55481728E-10
  5.34542544E-10 -3.99378766E-05  3.46153571E-10 -3.20586935E-10  5.18724637E-05
 -7.63970150E-05 -2.35766318E-08  7.19848519E-08  4.65205753E-09 -2.30912363E-08
 -4.76008715E-05 -2.03302934E-08  6.18432135E-08  3.86195369E-09 -2.01452950E-08
 -2.36385113E-05 -1.04560152E-08  3.05291708E-08  1.94041652E-09 -9.51723213E-09
  1.31052489E-10 -9.50664545E-10 -2.31216651E-05 -1.48024090E-04 -8.80831631E-10
  5.40546326E-09  3.08074104E-10 -1.60982797E-09 -1.33094606E-06  2.82641078E-11
 -7.96673015E-11  1.56977339E-11  2.13350485E-11  3.03763381E-12 -1.72477974E-12
 -2.64501899E-01  8.79199148E-01  2.80719689E-02 -7.24951508E-03  1.85078592E-03
 -8.17590517E-04  2.27716499E-08  1.93031557E-08  3.76370405E-04 -2.42533108E-10
  1.21572897E-09  4.44076579E-05  1.53361345E-09  5.55667058E-10 -3.11262713E-05
 -1.08983403E-04  3.62022350E-08 -1.10080054E-07  7.03709149E-09 -3.70424203E-08
 -9.48857835E-05  3.13717278E-08 -9.54905425E-08  6.22631851E-09 -3.19018712E-08
 -1.06057134E-05  1.51284095E-08 -4.67220996E-08  2.94992501E-09 -1.51587254E-08
  3.60491156E-10 -1.83057606E-09 -1.10116510E-05 -1.20571144E-04  2.53252088E-09
 -7.34012818E-09  4.34282872E-10 -2.50581144E-09  4.18837879E-07  0.00000000E+00
 -1.79299243E-10  1.05046224E-10 -2.82094360E-11  0.00000000E+00 -3.78477198E-12
 -1.06078479E-04  3.70500921E-04  3.77194719E-05 -7.41831659E-05 -7.75337391E-05
  4.93138762E-04  2.06656070E-04 -6.47309549E-04  7.47391232E-01  4.49099725E-06
 -1.40670497E-05  1.63208345E-02 -8.97538534E-07  2.81066845E-06 -3.46239615E-03
 -2.93108318E-05 -1.37448795E-08  4.10498054E-08  4.91902429E-11 -8.58851306E-11
 -4.87260249E-05  9.92717649E-09 -3.06510715E-08  1.59175469E-10  0.00000000E+00
  1.12511177E-04 -2.03648019E-08  6.20417960E-08 -3.47564862E-11 -2.81391253E-11
  2.64137976E-07 -8.25532551E-07  1.33993176E-03  2.44664836E-04  6.49054308E-08
 -2.00721159E-07 -1.15470053E-12  0.00000000E+00  4.00866782E-06  1.90458921E-10
 -5.96347522E-10  1.65046207E-11  0.00000000E+00  1.80317079E-11 -1.30611956E-11
  9.21398814E-05 -3.24970710E-04 -4.25544234E-05  8.34397743E-05  6.43627145E-05
 -4.92704859E-04 -1.81106363E-04  5.61799099E-04  6.52579167E-01 -3.93675751E-06
  1.22117516E-05  1.42653260E-02  7.89177261E-07 -2.44761870E-06 -3.06425681E-03
  2.15546472E-05 -1.41427388E-08  3.46982101E-08 -4.02990488E-11  6.42444950E-11
  5.61017816E-05  1.04376232E-08 -2.87542410E-08 -4.09803221E-10  0.00000000E+00
 -1.27633408E-04 -2.17242840E-08  6.48296094E-08  8.23301484E-11  2.09275796E-11
 -2.35687344E-07  7.30283961E-07  1.24576759E-03 -2.35530118E-04  6.75330693E-08
 -2.09337627E-07  2.30940108E-12  0.00000000E+00  4.18470312E-06 -2.17998514E-10
  6.90569552E-10  3.32468222E-11 -1.83035870E-11 -1.50749168E-11  1.32686207E-11
  9.61819274E-05 -3.12550190E-04  3.84099177E-05 -7.36851075E-05  9.24529720E-05
  3.01908060E-05 -1.82645389E-04  5.71583417E-04 -6.52604323E-01 -3.96204113E-06
  1.23985932E-05 -1.41403842E-02  7.73906962E-07 -2.42207785E-06  2.71848091E-03
  5.55504826E-05  1.05135722E-08 -3.13335078E-08 -2.11656609E-10  1.28620066E-10
 -5.79904391E-05 -9.57288158E-10  3.42858017E-09 -1.42778722E-10  4.18475012E-11
  1.19784013E-04 -7.97196281E-09  2.37990071E-08  2.72509327E-11  4.44154881E-11
 -2.01460521E-07  6.32240420E-07 -6.07666919E-04 -5.11811505E-05  2.41275402E-08
 -7.53744494E-08  5.77350259E-14  0.00000000E+00  1.58556862E-06  2.44502811E-10
 -7.24428227E-10 -1.35155468E-11  0.00000000E+00 -1.22159153E-11  8.19423764E-12
  1.09603353E-04 -3.59641135E-04  3.29736025E-05 -6.30105171E-05  1.02062583E-04
 -3.65717888E-05 -2.09746965E-04  6.50632112E-04  7.47413200E-01 -4.55099168E-06
  1.41171612E-05  1.62117415E-02  8.91684743E-07 -2.76642263E-06 -3.16047453E-03
  5.89941844E-05 -1.45567618E-08  3.45888446E-08  2.97104449E-10  1.23096142E-10
 -5.08905499E-05  3.31328995E-09 -5.95605779E-09  1.06809800E-11  4.49339567E-11
  1.03520724E-04  4.29975922E-09 -1.54237306E-08  9.14522826E-11  4.20876028E-11
 -2.36374852E-07  7.33881627E-07  7.82774761E-04 -8.37005459E-05 -1.47645215E-08
  4.85401375E-08  5.19615237E-13  0.00000000E+00 -1.03190625E-06  2.13645523E-10
 -6.43455808E-10  3.87362516E-11 -1.71555694E-11 -1.32256304E-11  1.14318656E-11
 -5.97779601E-08  2.06319261E-07  1.30791907E-08 -2.69051885E-08 -4.67651932E-08
  2.30997514E-07  5.58651266E-01  6.72070837E-01  4.28359181E-04  1.21398683E-02
  1.46045207E-02  9.34408286E-06 -2.41565726E-03 -2.90601176E-03 -1.94963615E-06
 -1.93913682E-08 -3.31556929E-05 -3.98813820E-05  2.94026248E-11  9.05028579E-11
 -1.63344367E-08  2.26141353E-05  2.71721009E-05 -2.27013202E-11 -7.68036851E-11
  3.98572310E-08 -4.05662800E-05 -4.86951444E-05  1.13483969E-12  2.57954115E-11
  6.96388499E-04  8.37639866E-04  7.04055236E-07  1.21626320E-07  1.32251677E-04
  1.58755362E-04 -1.72142756E-12 -1.68323770E-11  1.67499895E-09  3.20043498E-07
  3.83423698E-07 -5.17275769E-11  0.00000000E+00 -4.62235231E-11  2.09371961E-11
  2.64352194E-08 -9.67784007E-08 -2.18886736E-08  4.58290879E-08  1.76672899E-08
 -2.30506711E-07 -3.01094191E-01 -3.60647771E-01  2.26023308E-04 -6.55086514E-03
 -7.84662231E-03  4.95636735E-06  1.32255577E-03  1.58429689E-03 -1.10003135E-06
  1.22647217E-09 -1.96308218E-05 -2.35271221E-05  5.58461349E-10  2.03644753E-09
  3.20370752E-08  2.02595478E-05  2.43259181E-05 -2.19270473E-10 -7.94487454E-10
 -7.23956620E-08 -4.89100612E-05 -5.87834828E-05 -1.05000384E-11  3.94668453E-10
 -4.08647707E-04 -4.89720803E-04  5.02914332E-07 -1.02256265E-07  1.58476942E-04
  1.90465322E-04  1.35504108E-12  5.15593769E-11  2.07169741E-09 -6.03156272E-07
 -7.25643691E-07 -3.05088264E-11  0.00000000E+00  4.47834295E-12  1.42691791E-11
  9.61270935E-08 -3.31670380E-07 -2.05281101E-08  4.33707710E-08  7.15408322E-08
 -3.62805014E-07  6.71857209E-01 -5.59798534E-01 -6.71946650E-04  1.45998907E-02
 -1.21647462E-02 -1.46573968E-05 -2.90511407E-03  2.42047462E-03  3.05850252E-06
  3.08916412E-08 -3.98714758E-05  3.32140228E-05 -3.46223215E-10 -3.08402418E-11
  2.49374708E-08  2.71738337E-05 -2.26026749E-05  5.40161291E-10  1.77451445E-11
 -6.29756732E-08 -4.87147227E-05  4.04622765E-05  6.67020849E-11  0.00000000E+00
  8.37416114E-04 -6.97586638E-04 -1.10517619E-06 -1.91560378E-07  1.58817405E-04
 -1.31916604E-04  8.89917313E-11  0.00000000E+00 -2.67949305E-09  3.83838947E-07
 -3.17684966E-07  6.15573611E-11  6.19610838E-11 -4.09657600E-11 -8.00531615E-11
 -5.03526699E-08  1.82183868E-07  3.79675651E-08 -7.25865201E-08 -3.08376840E-08
  3.57781698E-07 -3.61044973E-01  2.98955947E-01 -3.55983750E-04 -7.85524630E-03
  6.50444647E-03 -7.80588893E-06  1.58599182E-03 -1.31342922E-03  1.73201261E-06
 -6.76193539E-09 -2.35490111E-05  1.95151458E-05  1.88949065E-09 -1.16666051E-11
 -5.12499921E-08  2.43333454E-05 -2.02191317E-05 -1.01064743E-09 -5.25002345E-11
  1.12930346E-07 -5.87832051E-05  4.89119459E-05  3.86607481E-10 -1.43014407E-11
 -4.90179628E-04  4.06175426E-04 -7.91385975E-07  1.61136783E-07  1.90465148E-04
 -1.58476470E-04 -1.60629584E-10  0.00000000E+00 -3.30287165E-09 -7.25371935E-07
  6.04448485E-07  3.85227162E-11  3.38174871E-11  2.00495414E-11  8.22233193E-11
 -3.34699417E-08  1.05937257E-07 -2.23345579E-08  4.27483826E-08 -3.51416672E-08
 -6.66816154E-08  3.04219704E-01  3.58044843E-01  2.29371560E-04  6.59642004E-03
  7.76343330E-03  4.95768591E-06 -1.27764780E-03 -1.50348717E-03 -9.18258005E-07
 -2.26335398E-08 -1.48216374E-05 -1.74265779E-05  6.95381449E-11  7.06885709E-11
  3.25332851E-08 -2.50619229E-06 -3.03367327E-06  2.79667893E-11 -2.37106132E-11
 -6.81462543E-08  2.75706611E-05  3.27284115E-05  2.36663381E-11  1.87829498E-11
  3.18047319E-04  3.73974422E-04  1.45513270E-07 -1.65680973E-09 -8.80921794E-05
 -1.04580260E-04  4.93517855E-13  0.00000000E+00 -1.18833090E-09 -6.15925826E-07
 -7.29288359E-07 -2.36952445E-11  0.00000000E+00 -2.14505556E-11  4.23627673E-11
 -5.19680732E-08  1.71892999E-07 -1.24370270E-08  2.25501521E-08 -5.57058334E-08
  6.81634677E-08  5.63849440E-01  6.67709766E-01 -4.22215463E-04  1.22407307E-02
  1.44955009E-02 -9.17196257E-06 -2.40652737E-03 -2.84992133E-03  1.81709628E-06
 -2.84807041E-08  3.07618600E-05  3.64393260E-05  6.16992871E-11 -3.83376152E-09
  1.71357527E-08 -1.04408252E-05 -1.24082416E-05  4.85595443E-10  1.47764274E-09
 -3.49276821E-08 -5.50488113E-07 -5.00489099E-07  4.44445969E-11 -7.45866311E-10
  6.51750522E-04  7.71988416E-04 -5.01407247E-07  6.41703340E-08  2.96851378E-07
 -1.34841915E-07  6.30466494E-14 -9.06705132E-11  9.10766524E-11 -3.36668968E-07
 -3.96204837E-07  4.91262410E-11  0.00000000E+00  5.45528168E-11 -8.14987706E-12
  5.47244830E-08 -1.73430299E-07  3.58769175E-08 -6.83392475E-08  5.68820553E-08
  1.05799494E-07  3.58425444E-01 -3.02078442E-01 -3.66261774E-04  7.77170512E-03
 -6.54989006E-03 -7.91629872E-06 -1.50513258E-03  1.26838894E-03  1.46563012E-06
  3.69233851E-08 -1.74494339E-05  1.46963582E-05 -2.26075412E-10 -5.03021937E-11
 -5.29861834E-08 -3.01838845E-06  2.59391792E-06  2.62372557E-10 -1.26673164E-11
  1.09690834E-07  3.27008813E-05 -2.77250240E-05 -8.09107905E-11 -1.62556727E-11
  3.74448563E-04 -3.15378436E-04 -2.30618612E-07  3.59153138E-09 -1.04490466E-04
  8.85979280E-05  5.97539169E-11  0.00000000E+00  1.94319106E-09 -7.29091063E-07
  6.17164641E-07  2.24519176E-11  2.94073451E-11 -6.33928300E-11 -5.72937984E-11
  1.00324705E-07 -3.33329074E-07  1.75957904E-08 -3.27902308E-08  8.80669592E-08
 -1.12489540E-07  6.67506102E-01 -5.64998499E-01  6.77966592E-04  1.44910719E-02
 -1.22657326E-02  1.47279237E-05 -2.84902621E-03  2.41157462E-03 -2.91825652E-06
  4.86713226E-08  3.64264307E-05 -3.08397906E-05 -3.73678692E-09 -1.16700423E-11
 -2.92236241E-08 -1.23943063E-05  1.05167093E-05  1.76550196E-09  3.23138755E-11
  5.61719224E-08 -5.33625607E-07  3.62188425E-07 -7.88945679E-10  0.00000000E+00
  7.71711384E-04 -6.53310519E-04  8.05765833E-07 -1.03395590E-07 -2.70931476E-08
  3.09824876E-07  2.98193331E-10  0.00000000E+00 -1.20070293E-10 -3.96700893E-07
  3.34319472E-07 -5.28774434E-11 -5.63673558E-11 -6.25650437E-11 -9.51144888E-11
 -7.92189388E-02  3.13617055E-01 -4.49943958E-01 -3.29733603E-01 -1.02755538E-02
  3.41271125E-03  5.01962850E-09  1.20806604E-08 -6.60099699E-04 -9.07985889E-09
 -3.78861106E-08  1.41283885E-03 -7.23262621E-09  5.06919028E-09  1.11875068E-03
  2.80489818E-03  9.90784310E-07 -3.01827689E-06 -1.93539357E-07  1.02675068E-06
  2.05761966E-03  6.51352792E-07 -1.99336348E-06 -1.27663692E-07  6.77767489E-07
  8.61982019E-04  3.83197398E-07 -1.17513108E-06 -7.54937438E-08  4.03440510E-07
 -2.15189097E-08  6.55227288E-08 -4.53893406E-04 -1.52457404E-04  4.19094346E-08