HF file generated by AutoMR of MOKIT
Stability RHF                                                         Gen
Number of atoms                            I                2
Info1-9                                    I   N=           9
           6           5           0           0           0         110
           7           1           2
Charge                                     I                0
Multiplicity                               I                1
Number of electrons                        I               48
Number of alpha electrons                  I               24
Number of beta electrons                   I               24
Number of basis functions                  I               90
Number of independent functions            I               90
Number of point charges in /Mol/           I                0
Number of translation vectors              I                0
Atomic numbers                             I   N=           2
          24          24
Nuclear charges                            R   N=           2
  2.40000000E+01  2.40000000E+01
Current cartesian coordinates              R   N=           6
  0.00000000E+00  0.00000000E+00  0.00000000E+00  0.00000000E+00  0.00000000E+00
  5.66917840E+00
Force Field                                I                0
Int Atom Types                             I   N=           2
           0           0
MM charges                                 R   N=           2
  0.00000000E+00  0.00000000E+00
Integer atomic weights                     I   N=           2
          52          52
Real atomic weights                        R   N=           2
  5.19405097E+01  5.19405097E+01
Atom fragment info                         I   N=           2
           1           2
Atom residue num                           I   N=           2
           0           0
Nuclear spins                              I   N=           2
           0           0
Nuclear ZEff                               R   N=           2
 -2.47200000E+01 -2.47200000E+01
Nuclear QMom                               R   N=           2
  0.00000000E+00  0.00000000E+00
Nuclear GFac                               R   N=           2
  0.00000000E+00  0.00000000E+00
MicOpt                                     I   N=           2
          -1          -1
Number of contracted shells                I               30
Number of primitive shells                 I               72
Pure/Cartesian d shells                    I                0
Pure/Cartesian f shells                    I                0
Highest angular momentum                   I                3
Largest degree of contraction              I                8
Shell types                                I   N=          30
           0           0           0           0           0           0
           1           1           1          -2          -2          -2
           1          -2          -3           0           0           0
           0           0           0           1           1           1
          -2          -2          -2           1          -2          -3
Number of primitives per shell             I   N=          30
           8           4           2           1           1           1
           6           3           1           4           1           1
           1           1           1           8           4           2
           1           1           1           6           3           1
           4           1           1           1           1           1
Shell to atom map                          I   N=          30
           1           1           1           1           1           1
           1           1           1           1           1           1
           1           1           1           2           2           2
           2           2           2           2           2           2
           2           2           2           2           2           2
Primitive exponents                        R   N=          72
  2.54477807E+05  3.81317971E+04  8.67529306E+03  2.45500998E+03  7.99162178E+02
  2.86900215E+02  1.11254132E+02  4.38641526E+01  2.79326692E+02  8.62747324E+01
  1.35557561E+01  5.69781128E+00  8.56365826E+00  1.39882968E+00  5.72881711E-01
  9.00961713E-02  3.41258851E-02  1.30643989E+03  3.09253114E+02  9.89962740E+01
  3.67569165E+01  1.45666571E+01  5.87399374E+00  2.28909997E+01  3.08550018E+00
  1.21323291E+00  4.49316807E-01  4.37200745E+01  1.23912427E+01  4.26394420E+00
  1.55252218E+00  5.37619295E-01  1.64931731E-01  1.20675000E-01  5.10000000E-02
  1.14700000E+00  2.54477807E+05  3.81317971E+04  8.67529306E+03  2.45500998E+03
  7.99162178E+02  2.86900215E+02  1.11254132E+02  4.38641526E+01  2.79326692E+02
  8.62747324E+01  1.35557561E+01  5.69781128E+00  8.56365826E+00  1.39882968E+00
  5.72881711E-01  9.00961713E-02  3.41258851E-02  1.30643989E+03  3.09253114E+02
  9.89962740E+01  3.67569165E+01  1.45666571E+01  5.87399374E+00  2.28909997E+01
  3.08550018E+00  1.21323291E+00  4.49316807E-01  4.37200745E+01  1.23912427E+01
  4.26394420E+00  1.55252218E+00  5.37619295E-01  1.64931731E-01  1.20675000E-01
  5.10000000E-02  1.14700000E+00
Contraction coefficients                   R   N=          72
  2.42904776E-04  1.88435236E-03  9.80095844E-03  3.98250087E-02  1.29405437E-01
  3.06290018E-01  4.34628350E-01  2.24695629E-01 -2.43633579E-02 -1.15114954E-01
  5.50922663E-01  5.36113547E-01 -3.71230177E-01  1.16811695E+00  1.00000000E+00
  1.00000000E+00  1.00000000E+00  2.82928007E-03  2.27766292E-02  1.05645619E-01
  2.99499449E-01  4.77062454E-01  2.76542344E-01 -1.94121061E-02  3.86188758E-01
  6.76239089E-01  1.00000000E+00  2.20932593E-02  1.28014388E-01  3.86529103E-01
  6.41033014E-01  1.00000000E+00  1.00000000E+00  1.00000000E+00  1.00000000E+00
  1.00000000E+00  2.42904776E-04  1.88435236E-03  9.80095844E-03  3.98250087E-02
  1.29405437E-01  3.06290018E-01  4.34628350E-01  2.24695629E-01 -2.43633579E-02
 -1.15114954E-01  5.50922663E-01  5.36113547E-01 -3.71230177E-01  1.16811695E+00
  1.00000000E+00  1.00000000E+00  1.00000000E+00  2.82928007E-03  2.27766292E-02
  1.05645619E-01  2.99499449E-01  4.77062454E-01  2.76542344E-01 -1.94121061E-02
  3.86188758E-01  6.76239089E-01  1.00000000E+00  2.20932593E-02  1.28014388E-01
  3.86529103E-01  6.41033014E-01  1.00000000E+00  1.00000000E+00  1.00000000E+00
  1.00000000E+00  1.00000000E+00
Coordinates of each shell                  R   N=          90
  0.00000000E+00  0.00000000E+00  0.00000000E+00  0.00000000E+00  0.00000000E+00
  0.00000000E+00  0.00000000E+00  0.00000000E+00  0.00000000E+00  0.00000000E+00
  0.00000000E+00  0.00000000E+00  0.00000000E+00  0.00000000E+00  0.00000000E+00
  0.00000000E+00  0.00000000E+00  0.00000000E+00  0.00000000E+00  0.00000000E+00
  0.00000000E+00  0.00000000E+00  0.00000000E+00  0.00000000E+00  0.00000000E+00
  0.00000000E+00  0.00000000E+00  0.00000000E+00  0.00000000E+00  0.00000000E+00
  0.00000000E+00  0.00000000E+00  0.00000000E+00  0.00000000E+00  0.00000000E+00
  0.00000000E+00  0.00000000E+00  0.00000000E+00  0.00000000E+00  0.00000000E+00
  0.00000000E+00  0.00000000E+00  0.00000000E+00  0.00000000E+00  0.00000000E+00
  0.00000000E+00  0.00000000E+00  5.66917840E+00  0.00000000E+00  0.00000000E+00
  5.66917840E+00  0.00000000E+00  0.00000000E+00  5.66917840E+00  0.00000000E+00
  0.00000000E+00  5.66917840E+00  0.00000000E+00  0.00000000E+00  5.66917840E+00
  0.00000000E+00  0.00000000E+00  5.66917840E+00  0.00000000E+00  0.00000000E+00
  5.66917840E+00  0.00000000E+00  0.00000000E+00  5.66917840E+00  0.00000000E+00
  0.00000000E+00  5.66917840E+00  0.00000000E+00  0.00000000E+00  5.66917840E+00
  0.00000000E+00  0.00000000E+00  5.66917840E+00  0.00000000E+00  0.00000000E+00
  5.66917840E+00  0.00000000E+00  0.00000000E+00  5.66917840E+00  0.00000000E+00
  0.00000000E+00  5.66917840E+00  0.00000000E+00  0.00000000E+00  5.66917840E+00
Constraint Structure                       R   N=           6
  0.00000000E+00  0.00000000E+00  0.00000000E+00  0.00000000E+00  0.00000000E+00
  5.66917840E+00
Num ILSW                                   I              100
ILSW                                       I   N=         100
           0           0           0           0           2           1
           0           0           0           0           0          -1
           0           0           0           0           0           0
           0           0           0           0           0           0
           1           1           0           0           0           0
           0           0      100000           0          -1           0
           0           0           0           0           0           0
           0           0           0           1           0           0
           0           0           1           0           0           0
           0           0           4          40           0           0
           0           0           0           0           0           0
           0           0           0           0           0           0
           0           0           0           0           0           0
           0           0           0           0           0           0
           0           0           0           0           0           0
           0           0           0           0           0           0
           0           0           0           0
Num RLSW                                   I               40
RLSW                                       R   N=          40
  1.00000000E+00  1.00000000E+00  1.00000000E+00  1.00000000E+00  1.00000000E+00
  0.00000000E+00  0.00000000E+00  1.00000000E+00  0.00000000E+00  0.00000000E+00
  0.00000000E+00  0.00000000E+00  1.00000000E+00  0.00000000E+00  0.00000000E+00
  0.00000000E+00  0.00000000E+00  1.00000000E+00  0.00000000E+00  0.00000000E+00
  0.00000000E+00  0.00000000E+00  1.00000000E+00  0.00000000E+00  0.00000000E+00
  0.00000000E+00  0.00000000E+00  1.00000000E+00  0.00000000E+00  0.00000000E+00
  0.00000000E+00  0.00000000E+00  1.00000000E+00  0.00000000E+00  0.00000000E+00
  0.00000000E+00  0.00000000E+00  0.00000000E+00  1.00000000E+00  1.00000000E+00
ECP-MxAtEC                                 I           250000
ECP-MaxLECP                                I               10
ECP-MaxAtL                                 I          2250000
ECP-MxTECP                                 I         11250000
ECP-LenNCZ                                 I                0
ECP-KFirst                                 I   N=          20
           0           0           0           0           0           0
           0           0           0           0           0           0
           0           0           0           0           0           0
           0           0
ECP-KLast                                  I   N=          20
           0           0           0           0           0           0
           0           0           0           0           0           0
           0           0           0           0           0           0
           0           0
ECP-LMax                                   I   N=           2
           0           0
ECP-LPSkip                                 I   N=           2
           1           1
ECP-RNFroz                                 R   N=           2
  0.00000000E+00  0.00000000E+00
ECP-NLP                                    I                0
ECP-CLP1                                   R      0.000000000000000E+00
ECP-CLP2                                   R      0.000000000000000E+00
ECP-ZLP                                    R      0.000000000000000E+00
MxBond                                     I                1
NBond                                      I   N=           2
           0           0
IBond                                      I   N=           2
           0           0
RBond                                      R   N=           2
  0.00000000E+00  0.00000000E+00
Virial Ratio                               R      2.000014116054456E+00
SCF Energy                                 R     -2.086669893077687E+03
Total Energy                               R     -2.086669893077687E+03
S**2                                       R      5.674569458496144E+00
S**2 after annihilation                    R      1.770799823535651E+01
RMS Density                                R      1.813224320738972E-09
External E-field                           R   N=          35
  0.00000000E+00  0.00000000E+00  0.00000000E+00  0.00000000E+00  0.00000000E+00
  0.00000000E+00  0.00000000E+00  0.00000000E+00  0.00000000E+00  0.00000000E+00
  0.00000000E+00  0.00000000E+00  0.00000000E+00  0.00000000E+00  0.00000000E+00
  0.00000000E+00  0.00000000E+00  0.00000000E+00  0.00000000E+00  0.00000000E+00
  0.00000000E+00  0.00000000E+00  0.00000000E+00  0.00000000E+00  0.00000000E+00
  0.00000000E+00  0.00000000E+00  0.00000000E+00  0.00000000E+00  0.00000000E+00
  0.00000000E+00  0.00000000E+00  0.00000000E+00  0.00000000E+00  0.00000000E+00
IOpCl                                      I                0
IROHF                                      I                0
Alpha Orbital Energies                     R   N=          90
  0.00000000E+00  0.00000000E+00  0.00000000E+00  0.00000000E+00  0.00000000E+00
  0.00000000E+00  0.00000000E+00  0.00000000E+00  0.00000000E+00  0.00000000E+00
  0.00000000E+00  0.00000000E+00  0.00000000E+00  0.00000000E+00  0.00000000E+00
  0.00000000E+00  0.00000000E+00  0.00000000E+00  0.00000000E+00  0.00000000E+00
  0.00000000E+00  0.00000000E+00  0.00000000E+00  0.00000000E+00  0.00000000E+00
  0.00000000E+00  0.00000000E+00  0.00000000E+00  0.00000000E+00  0.00000000E+00
  0.00000000E+00  0.00000000E+00  0.00000000E+00  0.00000000E+00  0.00000000E+00
  0.00000000E+00  0.00000000E+00  0.00000000E+00  0.00000000E+00  0.00000000E+00
  0.00000000E+00  0.00000000E+00  0.00000000E+00  0.00000000E+00  0.00000000E+00
  0.00000000E+00  0.00000000E+00  0.00000000E+00  0.00000000E+00  0.00000000E+00
  0.00000000E+00  0.00000000E+00  0.00000000E+00  0.00000000E+00  0.00000000E+00
  0.00000000E+00  0.00000000E+00  0.00000000E+00  0.00000000E+00  0.00000000E+00
  0.00000000E+00  0.00000000E+00  0.00000000E+00  0.00000000E+00  0.00000000E+00
  0.00000000E+00  0.00000000E+00  0.00000000E+00  0.00000000E+00  0.00000000E+00
  0.00000000E+00  0.00000000E+00  0.00000000E+00  0.00000000E+00  0.00000000E+00
  0.00000000E+00  0.00000000E+00  0.00000000E+00  0.00000000E+00  0.00000000E+00
  0.00000000E+00  0.00000000E+00  0.00000000E+00  0.00000000E+00  0.00000000E+00
  0.00000000E+00  0.00000000E+00  0.00000000E+00  0.00000000E+00  0.00000000E+00
Alpha MO coefficients                      R   N=        8100
  6.39943470E-04 -1.26280702E-05  7.36837186E-06  1.20287817E-04 -1.37782116E-04
  1.02104508E-05 -1.18913803E-10  4.14821580E-11 -4.83979723E-05  3.35097848E-11
 -1.40741867E-11  1.31402977E-05  1.15489200E-11 -4.74300750E-12  6.43000652E-05
 -1.96162487E-06 -1.70462280E-14  7.16886965E-15 -3.71540760E-18 -7.18258365E-19
  1.49130173E-05 -3.02089621E-14  1.26530506E-14 -2.48795141E-18 -4.81634038E-19
 -9.44172820E-05 -3.76485503E-15  1.31233702E-15 -1.40006396E-18 -2.68590098E-19
  1.76992114E-13 -8.67162984E-14 -1.88194559E-04 -3.69932256E-05 -4.10422364E-14
  1.52794079E-14 -1.35028244E-19 -2.89243400E-20 -6.24400752E-06  1.98990851E-15
 -8.49146839E-16  4.22132341E-21 -6.36953849E-23 -6.53489796E-22 -3.70928267E-21
 -9.98273061E-01 -5.40482822E-03  2.09415842E-03 -1.73928631E-03  5.93611676E-04
 -2.12690078E-04 -5.77158328E-12  2.30646434E-12  2.76212841E-05  4.55102026E-12
 -1.81847895E-12 -2.62537047E-05  1.41793753E-12 -5.67486960E-13  4.97764830E-05
  7.42898047E-06  2.01518266E-15 -7.36549826E-16 -1.48913348E-19 -1.72066721E-19
 -3.12488732E-05  2.33760171E-15 -1.04227137E-15  1.27007797E-19  8.48725743E-20
  1.06386649E-04 -9.52748940E-15  3.98647196E-15 -5.57105429E-20 -4.52179019E-20
  8.81437798E-14 -3.35501857E-14 -1.63776845E-04 -3.65947317E-06 -7.15992637E-14
  2.65606143E-14  1.54713649E-20  1.57213672E-20 -4.45206672E-06  2.81494850E-15
 -1.08163489E-15  1.35393540E-21  7.10770961E-22 -6.78949764E-22  2.20310380E-21
 -9.98273062E-01 -5.40485592E-03  2.09415106E-03 -1.73908177E-03  5.93334241E-04
 -2.12575044E-04  4.17103374E-11  5.56789453E-11 -2.76811325E-05 -1.49163395E-11
 -1.28349150E-11  2.62684447E-05 -4.98610711E-12 -4.55179614E-12 -4.96935940E-05
  7.38126036E-06  2.41667485E-15  6.15882695E-15 -9.90526325E-18  8.36502542E-18
 -3.11977784E-05  1.03785995E-14  1.14581158E-14 -7.55523783E-18  5.88823576E-18
  1.06296210E-04 -8.69329978E-15  1.05217765E-15 -3.84618149E-18  3.19258571E-18
 -1.25328305E-13 -5.43490719E-14  1.63537696E-04 -3.73177764E-06 -1.05270561E-14
  1.70869202E-14 -4.47362099E-19  3.24670897E-19  4.38942717E-06 -2.34791125E-15
 -8.25590234E-16  1.76627123E-20 -2.70213891E-21  4.03550106E-21  2.06578310E-20
 -6.40918705E-04 -1.95613180E-05  1.00533583E-05  1.18044642E-04 -1.36994340E-04
  9.89575616E-06  8.38803369E-11  4.36648509E-12  4.84312490E-05 -2.11078633E-11
 -3.26318649E-12 -1.31707197E-05 -7.24002369E-12 -1.02742005E-12 -6.42433867E-05
 -1.95027262E-06 -1.37486139E-14 -1.86250510E-15  2.05173240E-21  1.74656361E-20
  1.48620179E-05 -1.95200254E-14 -2.12530879E-15 -1.79488998E-20  1.04852685E-20
 -9.42687330E-05  5.17292607E-15  3.80289147E-15 -2.21864276E-20  1.38954126E-20
 -7.10761583E-14 -4.41489376E-14  1.88003812E-04 -3.69977823E-05  1.09990035E-14
  3.09772196E-14  2.23957025E-21  5.12627307E-21  6.22005580E-06 -3.39644088E-15
 -1.36468171E-15  4.38061407E-21 -2.78268098E-21  5.67904117E-22 -1.09469853E-21
  3.94853590E-02 -1.81545316E-01  4.46310711E-01  3.24369033E-01  1.20648109E-02
 -3.82735459E-03  5.35906981E-12  4.53681644E-11  7.27278355E-03  1.32990292E-12
 -2.17537804E-11  7.97803371E-03  3.26854274E-13 -7.08882203E-12  1.35067404E-03
  1.11876226E-04 -6.44378849E-16  9.89468536E-15  3.57650927E-17  3.57755212E-17
 -8.28275046E-05 -5.19104260E-16  1.86075684E-14 -1.31403837E-17  2.50342481E-17
  8.18368094E-04 -5.07212338E-16 -7.50313201E-16  4.61112487E-17  2.71121805E-17
  2.76988591E-14 -1.70499556E-13  2.18726671E-03  5.57288785E-04  8.33063277E-15
  1.06825062E-14 -6.32916880E-18  3.12449645E-19  1.61975846E-05  2.05506748E-16
 -1.72507600E-15  6.26422517E-18  1.16151016E-18  5.83095788E-18 -4.40007837E-17
 -3.94865696E-02  1.81537093E-01 -4.46343946E-01 -3.24284143E-01 -1.23087647E-02
  3.98974055E-03 -3.51003188E-11  3.35259758E-11  7.27361701E-03 -1.95473181E-12
 -6.57311580E-12  7.97190999E-03 -2.73112228E-13 -2.31251671E-12  1.37624033E-03
 -6.38931065E-05 -1.46959211E-15 -3.54731103E-15 -1.48380220E-16 -6.64810252E-17
  5.02199964E-05 -1.24263154E-15 -5.75200412E-15  9.76115379E-17 -2.26127490E-17
 -8.49692994E-04  4.58492318E-16  6.12644390E-15 -1.31716879E-17  5.16142003E-18
 -4.36543445E-14 -3.96450799E-14  2.14630360E-03 -4.70116617E-04  5.53610010E-15
  2.81005373E-14  7.99275128E-18 -1.46722048E-18  4.88327046E-05 -2.51613742E-16
 -1.86311878E-15  9.55926467E-19 -1.14799916E-18 -2.94755520E-18  8.18169866E-18
  3.00781731E-02 -1.49411945E-01  4.42762530E-01  3.21758718E-01  1.01284875E-02
 -3.33421979E-03  3.18518451E-11  4.45882838E-11  3.57571720E-02  1.20347934E-12
 -2.42183803E-11  6.16180411E-03 -4.56124087E-14 -7.82154755E-12  9.79489677E-04
  1.63243483E-04 -2.42502672E-15  1.42749692E-14  5.93479132E-17  5.43141899E-18
 -1.35454285E-04 -9.49057027E-16  2.20644774E-14  4.49320550E-18 -5.33106475E-18
  2.35425642E-04 -3.61256895E-15  5.79937872E-15  5.43629886E-17  1.15755766E-17
  5.84217851E-14 -1.84557239E-13 -2.71634075E-04 -5.19974815E-04  1.02458389E-14
  2.06178413E-14 -2.70016589E-18 -9.47307388E-19 -1.72928331E-06 -1.77685032E-16
 -1.14130304E-15  2.33378485E-18  1.38143258E-18 -2.88447222E-18 -1.74001045E-17
  3.00808955E-02 -1.49389102E-01  4.42844526E-01  3.21516129E-01  1.06705421E-02
 -3.42119078E-03 -2.85871540E-11  1.48534598E-11 -3.57548025E-02 -1.02678938E-11
  6.29079465E-12 -6.18428676E-03 -2.87803867E-12  1.80644095E-12 -8.42530535E-04
  1.12748012E-04 -7.31045976E-15  5.31669304E-15  1.47986677E-16  6.65411873E-17
 -2.01872517E-04 -8.43768230E-15  6.20990831E-15 -9.58301090E-17  2.15301131E-17
  6.32536538E-04  1.40751479E-15  5.50581932E-15  1.20380714E-17 -4.32695048E-18
 -9.48912167E-14  1.54526663E-14 -2.53502240E-04 -4.74089216E-04  1.36716263E-14
  3.55049690E-14 -4.78221658E-18  2.79559659E-18 -2.80850279E-05 -1.48252162E-15
 -5.34536861E-16 -1.15516381E-18  1.32618562E-18  2.61749518E-18 -8.21757563E-18
  1.02644128E-01 -3.46243027E-01  1.76358436E-02  2.52223195E-02 -1.76882704E-03
  5.74914135E-04 -1.61547298E-10  1.98918702E-10  6.31778363E-01  3.70984671E-11
 -4.53236189E-11 -3.30373354E-01  1.31738631E-11 -1.60925690E-11 -1.07523358E-01
  3.03306240E-04 -2.18860554E-14  1.81508140E-14  2.48429433E-17 -1.88904980E-16
 -2.43745221E-04 -3.54685807E-14  3.80654840E-14  2.22807225E-17 -7.44989697E-17
 -2.33405673E-04 -1.09217436E-14 -2.78495242E-15  1.48407329E-17 -4.16259724E-17
  1.32760373E-13 -2.12684469E-13 -2.77642005E-03  4.65890355E-04 -6.97853564E-14
  3.86161189E-14  3.01257157E-18 -5.61152560E-18 -8.18765546E-05  1.26145369E-15
 -3.99875990E-15  1.39323124E-17  1.17607071E-17  4.83201538E-17 -1.18365885E-16
  1.02680084E-01 -3.46190881E-01  1.82541066E-02  2.42871324E-02 -9.45791151E-04
  6.88389451E-06  4.99529374E-11  9.07208963E-11 -6.31836359E-01 -5.68821710E-12
 -2.38000500E-11  3.30558037E-01 -2.24829591E-12 -8.09163915E-12  1.07492188E-01
  2.59396965E-04 -4.83408354E-15 -1.49372681E-14  2.55351950E-18 -7.13854793E-19
  2.58733312E-05 -8.30525385E-15 -1.95836366E-14 -6.20412533E-18  6.76422426E-18
 -3.69527993E-04 -1.02259677E-14  1.36744409E-14 -1.11931680E-18 -3.75489227E-18
  9.77327786E-14 -1.59172565E-13  2.27021302E-03  2.93327504E-04 -1.02335178E-13
  9.68372298E-14 -1.43182598E-18  1.73743391E-18  1.47527547E-04  2.17286276E-15
 -6.31936788E-15 -2.05629548E-17  1.08486253E-17 -2.57337763E-18  3.29482882E-18
 -2.27117430E-01  7.67185080E-01 -5.36243557E-02 -6.48253670E-02  9.12368184E-04
  1.45238646E-04  2.50772620E-10  8.97553974E-11  1.17280720E-01 -5.70357913E-11
 -4.24517279E-11 -3.95040983E-02 -2.02756366E-11 -1.38409346E-11 -1.35959046E-02
  7.50027471E-05  3.03318819E-14  1.50317169E-14 -1.35500739E-17  1.51984354E-17
 -1.05189549E-04  5.24567584E-14  3.41584158E-14  1.22404391E-17  1.44576523E-18
  6.35298727E-04  1.07658256E-14 -1.01445514E-14 -8.57861713E-18  1.87101138E-18
 -2.21197201E-13 -3.52488876E-13  8.67661313E-04  6.98171499E-05  8.93059139E-14
  3.79702673E-15  1.58225618E-18 -1.09042566E-19  3.51941760E-05 -2.87345937E-15
 -4.49536078E-15 -1.47499748E-18  1.26906595E-18 -5.26449535E-19  8.74281832E-18
  2.27257267E-01 -7.67124876E-01  5.57573421E-02  6.23556393E-02 -3.16508292E-04
 -2.09669674E-04 -1.60650817E-11  1.12555516E-10  1.17310254E-01 -2.82774050E-12
 -3.00783497E-11 -3.96088336E-02 -6.55877404E-13 -1.02406122E-11 -1.35051301E-02
 -5.59645071E-05 -3.75271372E-16 -1.86652156E-14  4.93993436E-18  2.67903298E-18
  8.08830639E-05  1.62254448E-15 -2.73129223E-14 -6.98503246E-18  7.78057731E-18
 -6.03139162E-04  1.60926449E-14  1.31896462E-14 -1.90688801E-18 -2.70264496E-18
 -1.62622870E-13 -1.33989230E-13  9.70369647E-04 -9.63220527E-05  1.47013712E-13
  4.43329097E-14 -1.23891033E-19  9.46803456E-19  2.30073897E-05 -4.71810976E-15
 -5.81202227E-15  2.24055305E-18 -1.18260841E-18  4.39312962E-19 -1.74893752E-18
 -2.06733858E-01  7.00845228E-01 -7.29762244E-02 -7.56981991E-02 -8.39195868E-04
  4.94067925E-04  1.90758166E-10  3.16539218E-11  3.35394719E-01 -5.00147143E-11
  1.57842765E-11 -1.24338550E-01 -1.73809853E-11  4.31919662E-12 -4.17020725E-02
  1.15288736E-04  1.48520829E-14 -5.33720458E-15 -3.54051406E-17 -6.06106881E-17
 -1.56707186E-04  3.88211006E-14 -1.23698100E-14  4.52073536E-19 -2.44900961E-17
  4.65257486E-05 -1.39561655E-14  6.85230650E-15 -1.73413349E-17 -1.42817696E-17
 -3.06641820E-13  2.27950862E-13 -6.67828709E-04  2.12493814E-04  9.93566766E-15
  1.47197594E-14  1.69598839E-18 -1.96640030E-18 -3.38239275E-05 -5.87447124E-15
  1.88077360E-15  4.95210932E-18  3.96478972E-18  1.89203501E-17 -4.16693196E-17
 -2.06875213E-01  7.00778506E-01 -7.51427376E-02 -7.31269807E-02 -1.71087039E-03
  2.46969394E-04  1.80548980E-10 -4.22167936E-11 -3.35492401E-01 -4.50272499E-11
  1.26739206E-11  1.24701728E-01 -1.54355809E-11  4.28001239E-12  4.12253692E-02
  1.05838010E-04 -2.89352773E-14  7.58022789E-15 -1.19896985E-17 -6.66064678E-18
  6.28382626E-06 -3.99879128E-14  1.26010403E-14  9.84731014E-18 -6.78032705E-18
 -3.43978581E-04  1.59587884E-14 -5.01844182E-15  1.37675929E-18  1.55997957E-18
 -2.00130027E-13  3.45895827E-14  1.12700677E-03  8.55872189E-05  7.88315094E-14
  1.12648932E-14 -1.40924954E-18 -6.20332446E-19  7.45052203E-05 -8.87573810E-15
  1.65047958E-15 -7.50208875E-18  3.86395482E-18 -1.17521375E-18  3.34764277E-18
  3.59270165E-02 -1.20843885E-01  4.51417096E-03  6.79285951E-03  2.10098566E-03
  1.18707793E-03 -1.05420236E-10  7.88039805E-10  7.34355005E-01  3.24693647E-11
 -2.23436189E-10 -2.44171226E-01  1.10000760E-11 -7.68232496E-11 -8.31744529E-02
  4.18362967E-04  9.82802751E-15  5.97767361E-14  1.01248264E-16 -2.66907323E-17
  7.38024856E-05 -1.30013027E-14  1.70774863E-13  7.96027451E-17 -3.62986545E-17
  1.22416117E-03  4.66556736E-14 -7.97564394E-14  4.12637213E-17 -1.81356790E-17
  3.47135365E-13 -1.49205095E-12  1.36357914E-03  4.96515189E-04  1.06067432E-13
  1.04194887E-14  4.00911825E-18 -1.13909981E-18  7.89979358E-05  9.47505375E-15
 -2.80624125E-14 -4.44284450E-18  9.15133246E-18  1.47466324E-18  1.35278475E-17
 -3.59510306E-02  1.20842471E-01 -4.86213464E-03 -6.43559969E-03 -2.26157845E-03
 -9.82743686E-04 -4.67160216E-10  8.39513251E-10  7.34559503E-01  9.91900237E-11
 -2.31902878E-10 -2.44875385E-01  3.47271353E-11 -7.87040710E-11 -8.26405768E-02
 -2.46509741E-04  6.59441439E-14 -1.49843505E-13 -3.42937442E-19 -6.06009966E-19
 -2.21826423E-04  9.39215343E-14 -2.08064964E-13  2.25151819E-18 -1.99283632E-18
 -1.14997515E-03 -1.29300576E-14  7.43942602E-14  6.86352998E-19  8.77152967E-19
  2.08234024E-13 -1.01693153E-12  1.92488266E-03 -3.15749427E-04  2.28597425E-14
  3.12541510E-13 -8.67247864E-19 -9.33302293E-19  1.39533000E-05  1.38739034E-14
 -4.25969212E-14  1.59662118E-17 -7.99710295E-18  2.11124396E-18 -1.05629884E-18
  7.07705943E-11 -1.33047762E-11 -2.83225215E-11 -1.91214807E-11 -2.78394186E-12
 -9.43393925E-13  2.48235031E-01  7.03951301E-01 -8.08291971E-10 -6.98838336E-02
 -1.98178376E-01  3.03837908E-10 -2.40521831E-02 -6.82078004E-02  1.02149650E-10
 -4.83190380E-13  1.93465351E-05  5.48634033E-05 -1.15835034E-17  1.67235592E-17
  4.73731172E-15  5.38545648E-05  1.52722163E-04  6.68096775E-17 -1.95608733E-16
 -1.29512396E-12 -2.36391360E-05 -6.70364694E-05  4.54655431E-18  5.13791597E-18
 -4.59534159E-04 -1.30315880E-03 -9.53445852E-13 -5.66097306E-13  7.89812054E-06
  2.23976980E-05 -4.96261469E-17  1.73738123E-16 -6.83575202E-14 -8.57283238E-06
 -2.43110587E-05 -7.92701366E-18 -1.94729012E-17  1.73778649E-17 -8.70549121E-17
 -8.74839294E-12  2.93842119E-11 -2.01001607E-13 -1.80474814E-12  2.60724142E-12
  8.87667417E-13  2.48322105E-01  7.04198212E-01 -5.52888076E-10 -7.01927028E-02
 -1.99054273E-01  1.88453139E-10 -2.37661534E-02 -6.73966694E-02  6.36406484E-11
  2.02187432E-13 -4.53150970E-05 -1.28505718E-04 -1.03557545E-17 -9.02974797E-17
  2.12658271E-13 -6.27723991E-05 -1.78011584E-04 -1.64929414E-17  1.42705230E-16
  1.28856084E-12  2.32301025E-05  6.58765229E-05  6.31187804E-18 -7.11460489E-17
 -3.18148508E-04 -9.02213731E-04 -2.41248609E-12  2.99943319E-13  1.01049869E-04
  2.86559825E-04 -2.61355988E-17  3.32324969E-17 -4.46452703E-14 -1.30639187E-05
 -3.70469969E-05 -7.10186371E-17  3.23638739E-17 -1.35368591E-17  6.85730936E-17
 -1.80434664E-10  3.88952078E-10 -4.94701476E-11 -4.84374787E-11 -2.18162989E-12
 -6.95275872E-13 -7.03951299E-01  2.48235036E-01 -5.27303333E-10  1.98178375E-01
 -6.98838343E-02  2.13803257E-10  6.82078001E-02 -2.40521833E-02  7.13155867E-11
 -3.60972810E-13 -5.48634026E-05  1.93465357E-05  5.14260369E-17 -4.01923879E-16
 -9.43507601E-14 -1.52722162E-04  5.38545657E-05  2.52442047E-16  2.39190333E-16
 -9.32897308E-13  6.70364700E-05 -2.36391353E-05  7.76486795E-17 -3.12188070E-16
  1.30315879E-03 -4.59534158E-04 -7.50915071E-13 -4.01386535E-13 -2.23976962E-05
  7.89812367E-06 -1.89010224E-16  6.17778295E-17 -6.32127432E-14  2.43110587E-05
 -8.57283233E-06  3.52387675E-17 -3.18485149E-18  2.76188282E-18  1.30789405E-16
  7.56053654E-11  4.32680793E-11  9.75490234E-13 -5.11988455E-13  1.82240402E-12
  7.06241665E-13 -7.04198214E-01  2.48322100E-01 -5.01359131E-10  1.99054274E-01
 -7.01927019E-02  2.16299245E-10  6.73966697E-02 -2.37661531E-02  7.15107363E-11
  2.16717124E-13  1.28505719E-04 -4.53150963E-05  4.76858827E-17 -6.78571419E-17
  2.16622567E-13  1.78011585E-04 -6.27723981E-05 -6.68479757E-18  6.78141846E-17
  8.45921733E-13 -6.58765227E-05  2.32301027E-05  4.89552399E-18 -3.28027640E-17
  9.02213734E-04 -3.18148509E-04 -1.24491501E-12  2.46802955E-13 -2.86559823E-04
  1.01049873E-04  7.72003094E-17 -5.57078375E-17 -1.26041243E-15  3.70469970E-05
 -1.30639187E-05 -1.15690615E-16 -4.36499629E-18  5.55092567E-17  8.69284806E-17
 -3.13809616E-11 -2.48537939E-11  7.45079574E-12  6.23746335E-12 -1.40286848E-13
 -3.00813869E-14  1.18704940E-01 -7.36117560E-01  8.55754111E-12 -2.60223749E-02
  1.61370935E-01 -5.58182019E-11 -9.32198398E-03  5.78078395E-02 -1.68778772E-11
  4.99246388E-14  2.11911525E-05 -1.31411375E-04  1.52122028E-16  2.38161523E-16
 -2.89864828E-14  2.81619830E-05 -1.74639153E-04  1.74992122E-16 -4.02656301E-17
 -8.30473180E-14  1.93496794E-05 -1.19991960E-04  1.87478972E-16  2.84466879E-16
 -5.25784190E-05  3.26051291E-04 -7.12777312E-13  3.33316462E-14  7.80275109E-05