HF file generated by AutoMR of MOKIT
Stability RHF                                                         Gen
Number of atoms                            I                2
Info1-9                                    I   N=           9
           6           5           0           0           0         110
           7           1           2
Charge                                     I                0
Multiplicity                               I                1
Number of electrons                        I               48
Number of alpha electrons                  I               24
Number of beta electrons                   I               24
Number of basis functions                  I               90
Number of independent functions            I               90
Number of point charges in /Mol/           I                0
Number of translation vectors              I                0
Atomic numbers                             I   N=           2
          24          24
Nuclear charges                            R   N=           2
  2.40000000E+01  2.40000000E+01
Current cartesian coordinates              R   N=           6
  0.00000000E+00  0.00000000E+00  0.00000000E+00  0.00000000E+00  0.00000000E+00
  5.66917840E+00
Force Field                                I                0
Int Atom Types                             I   N=           2
           0           0
MM charges                                 R   N=           2
  0.00000000E+00  0.00000000E+00
Integer atomic weights                     I   N=           2
          52          52
Real atomic weights                        R   N=           2
  5.19405097E+01  5.19405097E+01
Atom fragment info                         I   N=           2
           1           2
Atom residue num                           I   N=           2
           0           0
Nuclear spins                              I   N=           2
           0           0
Nuclear ZEff                               R   N=           2
 -2.47200000E+01 -2.47200000E+01
Nuclear QMom                               R   N=           2
  0.00000000E+00  0.00000000E+00
Nuclear GFac                               R   N=           2
  0.00000000E+00  0.00000000E+00
MicOpt                                     I   N=           2
          -1          -1
Number of contracted shells                I               30
Number of primitive shells                 I               72
Pure/Cartesian d shells                    I                0
Pure/Cartesian f shells                    I                0
Highest angular momentum                   I                3
Largest degree of contraction              I                8
Shell types                                I   N=          30
           0           0           0           0           0           0
           1           1           1          -2          -2          -2
           1          -2          -3           0           0           0
           0           0           0           1           1           1
          -2          -2          -2           1          -2          -3
Number of primitives per shell             I   N=          30
           8           4           2           1           1           1
           6           3           1           4           1           1
           1           1           1           8           4           2
           1           1           1           6           3           1
           4           1           1           1           1           1
Shell to atom map                          I   N=          30
           1           1           1           1           1           1
           1           1           1           1           1           1
           1           1           1           2           2           2
           2           2           2           2           2           2
           2           2           2           2           2           2
Primitive exponents                        R   N=          72
  2.54477807E+05  3.81317971E+04  8.67529306E+03  2.45500998E+03  7.99162178E+02
  2.86900215E+02  1.11254132E+02  4.38641526E+01  2.79326692E+02  8.62747324E+01
  1.35557561E+01  5.69781128E+00  8.56365826E+00  1.39882968E+00  5.72881711E-01
  9.00961713E-02  3.41258851E-02  1.30643989E+03  3.09253114E+02  9.89962740E+01
  3.67569165E+01  1.45666571E+01  5.87399374E+00  2.28909997E+01  3.08550018E+00
  1.21323291E+00  4.49316807E-01  4.37200745E+01  1.23912427E+01  4.26394420E+00
  1.55252218E+00  5.37619295E-01  1.64931731E-01  1.20675000E-01  5.10000000E-02
  1.14700000E+00  2.54477807E+05  3.81317971E+04  8.67529306E+03  2.45500998E+03
  7.99162178E+02  2.86900215E+02  1.11254132E+02  4.38641526E+01  2.79326692E+02
  8.62747324E+01  1.35557561E+01  5.69781128E+00  8.56365826E+00  1.39882968E+00
  5.72881711E-01  9.00961713E-02  3.41258851E-02  1.30643989E+03  3.09253114E+02
  9.89962740E+01  3.67569165E+01  1.45666571E+01  5.87399374E+00  2.28909997E+01
  3.08550018E+00  1.21323291E+00  4.49316807E-01  4.37200745E+01  1.23912427E+01
  4.26394420E+00  1.55252218E+00  5.37619295E-01  1.64931731E-01  1.20675000E-01
  5.10000000E-02  1.14700000E+00
Contraction coefficients                   R   N=          72
  2.42904776E-04  1.88435236E-03  9.80095844E-03  3.98250087E-02  1.29405437E-01
  3.06290018E-01  4.34628350E-01  2.24695629E-01 -2.43633579E-02 -1.15114954E-01
  5.50922663E-01  5.36113547E-01 -3.71230177E-01  1.16811695E+00  1.00000000E+00
  1.00000000E+00  1.00000000E+00  2.82928007E-03  2.27766292E-02  1.05645619E-01
  2.99499449E-01  4.77062454E-01  2.76542344E-01 -1.94121061E-02  3.86188758E-01
  6.76239089E-01  1.00000000E+00  2.20932593E-02  1.28014388E-01  3.86529103E-01
  6.41033014E-01  1.00000000E+00  1.00000000E+00  1.00000000E+00  1.00000000E+00
  1.00000000E+00  2.42904776E-04  1.88435236E-03  9.80095844E-03  3.98250087E-02
  1.29405437E-01  3.06290018E-01  4.34628350E-01  2.24695629E-01 -2.43633579E-02
 -1.15114954E-01  5.50922663E-01  5.36113547E-01 -3.71230177E-01  1.16811695E+00
  1.00000000E+00  1.00000000E+00  1.00000000E+00  2.82928007E-03  2.27766292E-02
  1.05645619E-01  2.99499449E-01  4.77062454E-01  2.76542344E-01 -1.94121061E-02
  3.86188758E-01  6.76239089E-01  1.00000000E+00  2.20932593E-02  1.28014388E-01
  3.86529103E-01  6.41033014E-01  1.00000000E+00  1.00000000E+00  1.00000000E+00
  1.00000000E+00  1.00000000E+00
Coordinates of each shell                  R   N=          90
  0.00000000E+00  0.00000000E+00  0.00000000E+00  0.00000000E+00  0.00000000E+00
  0.00000000E+00  0.00000000E+00  0.00000000E+00  0.00000000E+00  0.00000000E+00
  0.00000000E+00  0.00000000E+00  0.00000000E+00  0.00000000E+00  0.00000000E+00
  0.00000000E+00  0.00000000E+00  0.00000000E+00  0.00000000E+00  0.00000000E+00
  0.00000000E+00  0.00000000E+00  0.00000000E+00  0.00000000E+00  0.00000000E+00
  0.00000000E+00  0.00000000E+00  0.00000000E+00  0.00000000E+00  0.00000000E+00
  0.00000000E+00  0.00000000E+00  0.00000000E+00  0.00000000E+00  0.00000000E+00
  0.00000000E+00  0.00000000E+00  0.00000000E+00  0.00000000E+00  0.00000000E+00
  0.00000000E+00  0.00000000E+00  0.00000000E+00  0.00000000E+00  0.00000000E+00
  0.00000000E+00  0.00000000E+00  5.66917840E+00  0.00000000E+00  0.00000000E+00
  5.66917840E+00  0.00000000E+00  0.00000000E+00  5.66917840E+00  0.00000000E+00
  0.00000000E+00  5.66917840E+00  0.00000000E+00  0.00000000E+00  5.66917840E+00
  0.00000000E+00  0.00000000E+00  5.66917840E+00  0.00000000E+00  0.00000000E+00
  5.66917840E+00  0.00000000E+00  0.00000000E+00  5.66917840E+00  0.00000000E+00
  0.00000000E+00  5.66917840E+00  0.00000000E+00  0.00000000E+00  5.66917840E+00
  0.00000000E+00  0.00000000E+00  5.66917840E+00  0.00000000E+00  0.00000000E+00
  5.66917840E+00  0.00000000E+00  0.00000000E+00  5.66917840E+00  0.00000000E+00
  0.00000000E+00  5.66917840E+00  0.00000000E+00  0.00000000E+00  5.66917840E+00
Constraint Structure                       R   N=           6
  0.00000000E+00  0.00000000E+00  0.00000000E+00  0.00000000E+00  0.00000000E+00
  5.66917840E+00
Num ILSW                                   I              100
ILSW                                       I   N=         100
           0           0           0           0           2           1
           0           0           0           0           0          -1
           0           0           0           0           0           0
           0           0           0           0           0           0
           1           1           0           0           0           0
           0           0      100000           0          -1           0
           0           0           0           0           0           0
           0           0           0           1           0           0
           0           0           1           0           0           0
           0           0           4          40           0           0
           0           0           0           0           0           0
           0           0           0           0           0           0
           0           0           0           0           0           0
           0           0           0           0           0           0
           0           0           0           0           0           0
           0           0           0           0           0           0
           0           0           0           0
Num RLSW                                   I               40
RLSW                                       R   N=          40
  1.00000000E+00  1.00000000E+00  1.00000000E+00  1.00000000E+00  1.00000000E+00
  0.00000000E+00  0.00000000E+00  1.00000000E+00  0.00000000E+00  0.00000000E+00
  0.00000000E+00  0.00000000E+00  1.00000000E+00  0.00000000E+00  0.00000000E+00
  0.00000000E+00  0.00000000E+00  1.00000000E+00  0.00000000E+00  0.00000000E+00
  0.00000000E+00  0.00000000E+00  1.00000000E+00  0.00000000E+00  0.00000000E+00
  0.00000000E+00  0.00000000E+00  1.00000000E+00  0.00000000E+00  0.00000000E+00
  0.00000000E+00  0.00000000E+00  1.00000000E+00  0.00000000E+00  0.00000000E+00
  0.00000000E+00  0.00000000E+00  0.00000000E+00  1.00000000E+00  1.00000000E+00
ECP-MxAtEC                                 I           250000
ECP-MaxLECP                                I               10
ECP-MaxAtL                                 I          2250000
ECP-MxTECP                                 I         11250000
ECP-LenNCZ                                 I                0
ECP-KFirst                                 I   N=          20
           0           0           0           0           0           0
           0           0           0           0           0           0
           0           0           0           0           0           0
           0           0
ECP-KLast                                  I   N=          20
           0           0           0           0           0           0
           0           0           0           0           0           0
           0           0           0           0           0           0
           0           0
ECP-LMax                                   I   N=           2
           0           0
ECP-LPSkip                                 I   N=           2
           1           1
ECP-RNFroz                                 R   N=           2
  0.00000000E+00  0.00000000E+00
ECP-NLP                                    I                0
ECP-CLP1                                   R      0.000000000000000E+00
ECP-CLP2                                   R      0.000000000000000E+00
ECP-ZLP                                    R      0.000000000000000E+00
MxBond                                     I                1
NBond                                      I   N=           2
           0           0
IBond                                      I   N=           2
           0           0
RBond                                      R   N=           2
  0.00000000E+00  0.00000000E+00
Virial Ratio                               R      2.000014116054456E+00
SCF Energy                                 R     -2.086669893077687E+03
Total Energy                               R     -2.086669893077687E+03
S**2                                       R      5.674569458496144E+00
S**2 after annihilation                    R      1.770799823535651E+01
RMS Density                                R      1.813224320738972E-09
External E-field                           R   N=          35
  0.00000000E+00  0.00000000E+00  0.00000000E+00  0.00000000E+00  0.00000000E+00
  0.00000000E+00  0.00000000E+00  0.00000000E+00  0.00000000E+00  0.00000000E+00
  0.00000000E+00  0.00000000E+00  0.00000000E+00  0.00000000E+00  0.00000000E+00
  0.00000000E+00  0.00000000E+00  0.00000000E+00  0.00000000E+00  0.00000000E+00
  0.00000000E+00  0.00000000E+00  0.00000000E+00  0.00000000E+00  0.00000000E+00
  0.00000000E+00  0.00000000E+00  0.00000000E+00  0.00000000E+00  0.00000000E+00
  0.00000000E+00  0.00000000E+00  0.00000000E+00  0.00000000E+00  0.00000000E+00
IOpCl                                      I                0
IROHF                                      I                0
Alpha Orbital Energies                     R   N=          90
  2.00000000E+00  2.00000000E+00  2.00000000E+00  2.00000000E+00  2.00000000E+00
  2.00000000E+00  2.00000000E+00  2.00000000E+00  2.00000000E+00  2.00000000E+00
  2.00000000E+00  2.00000000E+00  2.00000000E+00  2.00000000E+00  2.00000000E+00
  2.00000000E+00  2.00000000E+00  2.00000000E+00  1.65330082E+00  1.07178511E+00
  1.06816785E+00  1.06816785E+00  1.01507487E+00  1.01507486E+00  9.84925393E-01
  9.84925388E-01  9.31836523E-01  9.31836523E-01  9.28421011E-01  3.46483803E-01
  0.00000000E+00  0.00000000E+00  0.00000000E+00  0.00000000E+00  0.00000000E+00
  0.00000000E+00  0.00000000E+00  0.00000000E+00  0.00000000E+00  0.00000000E+00
  0.00000000E+00  0.00000000E+00  0.00000000E+00  0.00000000E+00  0.00000000E+00
  0.00000000E+00  0.00000000E+00  0.00000000E+00  0.00000000E+00  0.00000000E+00
  0.00000000E+00  0.00000000E+00  0.00000000E+00  0.00000000E+00  0.00000000E+00
  0.00000000E+00  0.00000000E+00  0.00000000E+00  0.00000000E+00  0.00000000E+00
  0.00000000E+00  0.00000000E+00  0.00000000E+00  0.00000000E+00  0.00000000E+00
  0.00000000E+00  0.00000000E+00  0.00000000E+00  0.00000000E+00  0.00000000E+00
  0.00000000E+00  0.00000000E+00  0.00000000E+00  0.00000000E+00  0.00000000E+00
  0.00000000E+00  0.00000000E+00  0.00000000E+00  0.00000000E+00  0.00000000E+00
  0.00000000E+00  0.00000000E+00  0.00000000E+00  0.00000000E+00  0.00000000E+00
  0.00000000E+00  0.00000000E+00  0.00000000E+00  0.00000000E+00  0.00000000E+00
Alpha MO coefficients                      R   N=        8100
  2.88357639E-01  2.00444493E-03 -7.02393587E-04  5.26515259E-04 -3.04688635E-04
  7.17650000E-05  1.02025766E-12 -1.03634233E-12  2.92031545E-06 -6.01138825E-13
  5.86919725E-13 -1.85468715E-05  4.35762851E-13 -1.98412161E-13  6.81183416E-05
 -3.99232901E-06 -1.60093322E-12  2.78508766E-12 -6.89254864E-14 -7.56521875E-14
  2.31549597E-05 -1.16091610E-12  2.45637711E-12  1.47397935E-14 -1.49647842E-13
 -1.20627108E-04 -7.57306054E-13  9.10780180E-13 -8.32284224E-14 -8.78118558E-14
 -2.72113876E-13 -1.49486288E-13 -2.26989198E-04 -3.43967512E-05 -3.48347714E-13
  1.79713677E-13  2.81090280E-14 -4.11917926E-14 -7.21765222E-06 -4.85477680E-13
  2.16189751E-13 -1.93214677E-14  1.01020897E-13  3.58107734E-14  2.31309587E-13
 -9.55240445E-01 -6.65843198E-03  2.21631537E-03 -1.49940969E-03  6.10512405E-04
 -2.07497613E-04 -3.03740787E-12  2.57674295E-12  1.69405167E-06  2.81426569E-12
 -9.09562686E-14 -1.89695082E-05 -2.15647956E-12  2.54640565E-13  6.68833572E-05
  7.65073004E-06 -2.47583334E-12  3.89542247E-12  1.10227767E-13 -7.89611433E-13
 -3.40609859E-05 -2.02224868E-12  9.64677871E-12 -3.20550036E-14  1.27925633E-13
  1.28681808E-04 -1.06844914E-12  4.27860756E-12  4.56718639E-14 -2.77376344E-13
  7.19046443E-13  9.78373117E-14 -2.10474136E-04  7.23659894E-06 -2.88843858E-13
  8.75602081E-13 -9.71306511E-15  7.93594072E-14 -6.00478137E-06  1.06565795E-12
 -2.21613834E-13  5.21698618E-15  4.63483705E-13 -1.65446711E-13 -9.71516915E-13
  9.55241503E-01  6.66211346E-03 -2.19416133E-03  1.45032978E-03 -5.30539340E-04
  2.01435047E-04  3.25128165E-12 -3.11494211E-12  9.38629744E-08 -1.75837909E-12
  1.12201434E-12 -1.04531767E-05  1.18704569E-12 -8.48487699E-13  3.50457742E-05
 -6.53267791E-06 -4.35917742E-12  1.04120256E-11 -2.40206617E-13  9.59541803E-13
  2.55095148E-05 -3.23050560E-12  8.94372469E-12  6.22103209E-14  5.45809590E-13
 -7.43559013E-05 -1.74225421E-12  4.28977792E-12 -1.14636534E-13  3.72772059E-13
 -2.70472793E-13  3.80494414E-13 -1.01895931E-04  1.41611495E-05 -2.26906387E-13
  8.60287982E-13 -1.31618454E-14  9.69375562E-14 -2.41438379E-06 -1.53308306E-12
  7.75476222E-13 -1.58530768E-14  1.32813379E-13  1.35144131E-13  8.09242431E-13
  2.88361142E-01  2.01663866E-03 -6.29002888E-04  3.63927723E-04 -3.97629433E-05
  5.16801540E-05 -2.19988373E-12 -6.59650700E-13  2.38058462E-06 -8.51009131E-13
 -1.91325554E-13 -9.66497190E-06  5.19609895E-13 -1.04374256E-13  3.73487745E-05
 -2.89060204E-07  7.53309217E-13  3.23379745E-12 -4.89752782E-14  8.62856246E-13
 -5.17252687E-06  6.25534258E-13 -3.64645373E-12  2.21017630E-14  4.14600897E-13
  5.93357682E-05  3.21929744E-13 -2.07341493E-12  2.03940227E-14  4.34450529E-13
 -1.52911651E-13  1.32211376E-13 -1.32693354E-04  3.64870892E-05 -1.03744520E-13
 -4.01856772E-13  5.81258143E-14  2.87638899E-14 -4.67614817E-06 -3.07524497E-13
  8.19342010E-14 -8.19155310E-15 -1.32599342E-13  2.78468849E-14  3.26652994E-13
 -1.85523816E-01  6.16747106E-01  1.99074544E-02 -5.54508152E-03  2.09795439E-03
 -6.08050400E-04  9.66158898E-12 -5.86476684E-11 -1.46385290E-04 -1.05853788E-12
 -3.28315189E-13  6.84309276E-05  2.91380122E-12 -2.89987515E-12 -2.92192577E-04
  2.37761532E-05  1.65118804E-12  1.18499245E-12 -4.13892105E-12 -5.03076088E-14
 -1.15036495E-04 -7.33009530E-13  8.98806088E-13  1.23069229E-12 -6.38283707E-14
  5.49510357E-04  7.29604760E-13 -1.42705830E-14 -9.34115329E-13 -6.82384731E-14
 -1.30755113E-12  1.29840208E-12  1.00628198E-03  1.24628126E-04 -1.57940493E-13
 -2.26651215E-13  3.88066292E-13 -3.04104698E-12  2.71348654E-05 -6.47042252E-14
  9.08981644E-13 -4.55937403E-14 -1.40317956E-12  4.28266555E-15 -6.59349998E-15
  2.50777187E-01 -8.33649390E-01 -2.68207193E-02  7.35465054E-03 -2.59514625E-03
  7.56746589E-04 -3.58619528E-11  8.39991954E-11 -1.90801844E-04  6.19802520E-12
  1.06715010E-12  5.99136471E-05 -4.81709292E-13  3.19666338E-12 -2.93303306E-04
 -3.46275974E-05 -3.25304394E-13  1.64607423E-12  4.08101560E-12 -4.78883114E-13
  1.29551337E-04 -3.96380142E-13  8.58402377E-13 -2.45543723E-12  5.24130262E-13
 -5.65836023E-04  1.97001095E-13  1.23233569E-13  2.04063814E-12 -1.23619657E-13
 -6.59653230E-12 -1.01695574E-12  9.88169490E-04 -8.59165879E-05 -4.91864861E-14
 -1.76238698E-13 -3.79147991E-13  1.46582780E-13  2.52419311E-05  3.70222918E-13
 -1.31628106E-12 -3.56024321E-14 -5.07581409E-12 -8.61649994E-15 -3.23575243E-15
 -2.50790632E-01  8.33638193E-01  2.66077050E-02 -7.01460416E-03  2.01321923E-03
 -5.99197833E-04  1.31328915E-11 -7.93596962E-11 -1.73718392E-04 -1.87926070E-12
 -1.41725469E-13 -1.88781422E-05  3.66658368E-12 -3.84698144E-12 -4.74940354E-05
  4.06476478E-05 -1.27479588E-12  2.47185792E-12 -4.80548060E-12  4.42957515E-13
 -6.68176516E-05 -3.17820193E-12  1.92312245E-12  2.19941212E-12  3.21912447E-13
  1.37982282E-04 -5.88174869E-13  4.09887294E-13 -8.59604846E-13  1.37483458E-13
 -7.28102693E-13  4.53928941E-13  8.85783659E-05 -1.13683556E-04 -4.14069506E-13
  1.50588963E-13  6.88853614E-13 -7.06295193E-13 -2.41243273E-06 -1.09930917E-13
  1.23397042E-12 -7.28672677E-14 -2.80007759E-12  4.89351888E-15 -7.24385506E-15
 -1.85541991E-01  6.16731978E-01  1.96195285E-02 -5.08546472E-03  1.31137167E-03
 -3.95095824E-04  2.00146046E-11 -6.20748020E-11  1.23291331E-04  9.94239465E-13
 -7.52631057E-13  3.80723080E-05  2.08146463E-12 -2.31240863E-12 -4.00670530E-05
  3.19141377E-05  2.27835337E-12 -2.22962890E-12 -2.81301747E-12  8.96709583E-13
 -3.02410775E-05  1.46947574E-12 -1.58031678E-12  2.04404606E-12  4.63353063E-14
 -2.88158634E-05  6.88588637E-13 -3.38237477E-13 -8.31666219E-13  4.38110827E-13
 -1.97895888E-12  2.43461713E-13  2.09690479E-04 -1.45170518E-04 -1.63890986E-13
  2.92619224E-14  4.65668401E-13 -2.72117060E-14  1.02450642E-05 -2.57690150E-13
  9.08407807E-13 -2.43341288E-14  4.66198274E-12  5.23608302E-15  1.00575638E-15
  3.87274488E-06  2.86146516E-05  1.04841730E-04 -3.36516322E-04  8.94380266E-04
  3.36451124E-04  4.22559163E-09 -1.79321348E-08 -6.10039477E-03  9.11929033E-11
 -3.89492509E-10 -1.01930199E-04 -1.57703220E-11  7.39905960E-11 -1.40736587E-04
  7.25783889E-06 -9.64862732E-13  1.42623128E-13 -2.05937096E-13 -5.09370545E-12
  5.00206781E-05  1.00859843E-12  5.94477142E-13 -3.35642751E-14 -1.00738331E-11
  2.97310856E-04 -4.05929290E-13 -7.07057087E-13 -3.48381536E-13 -5.07404792E-12
 -2.37495943E-13 -1.47053793E-11  9.24592718E-04  3.09293593E-05 -6.62352790E-12
  8.30700769E-12 -1.20844465E-13 -1.39122897E-12  2.35194284E-05  2.43046083E-12
  2.37327883E-13  2.35467504E-14  4.05527478E-13  7.93242155E-13  1.01514097E-16
  6.54705216E-05 -2.63003498E-04 -1.15141824E-04  2.56583117E-04 -2.73202019E-04
 -5.38287412E-04  2.27769282E-08 -3.64632787E-08  9.92151639E-01  4.96995310E-10
 -7.94712938E-10  2.17493289E-02 -1.00020579E-10  1.58038677E-10 -4.66951427E-03
 -9.98882484E-08 -2.89125685E-12 -1.29721522E-12 -7.12017638E-13  2.61453409E-12
  1.26261038E-04  4.47476090E-12 -6.06756972E-12  9.23091641E-14 -2.20497686E-12
 -4.03159103E-04 -7.42402298E-13 -1.47299763E-12 -1.19634590E-13 -5.97982671E-12
  3.00846328E-11 -4.53700278E-11  2.12027301E-03 -2.86757494E-04 -2.26821197E-12
  4.50994670E-13 -2.82217154E-13  1.41751423E-12  1.59698227E-05 -1.08487147E-13
 -1.62607245E-12 -3.94403331E-13  4.95086835E-12  9.86214782E-15 -5.28328505E-12
 -6.54282643E-05  2.63376243E-04  1.16438719E-04 -2.60737132E-04  2.84211330E-04
  5.42460867E-04  8.28572826E-08  3.71697652E-08  9.92151574E-01  1.80620714E-09
  8.11186185E-10  2.17497187E-02 -3.62843147E-10 -1.63611235E-10 -4.67158421E-03
  1.89104860E-07 -1.19178723E-11  1.24464069E-12  1.14359997E-12  1.65881664E-12
 -1.25655739E-04  3.45966749E-12 -6.94253772E-12 -2.19019049E-12 -1.11328085E-11
  4.06841801E-04 -5.50238207E-13 -8.02939212E-13  9.12701347E-13  8.00582160E-12
  1.15207237E-10  5.06741457E-11  2.13178967E-03  2.87158684E-04  1.79438300E-11
  5.32326898E-12 -9.33623261E-13 -2.23081431E-12  1.62600055E-05 -1.23065355E-12
  1.20326847E-12  3.49901836E-13  2.90148878E-12 -9.68156260E-13 -2.52552133E-14
 -3.06853453E-06 -3.18485620E-05 -1.06264397E-04  3.39694122E-04 -8.97803186E-04
 -3.43089512E-04 -6.58940258E-09  2.29370873E-09  6.09001014E-03 -1.47327126E-10
  4.84695585E-11  1.65301303E-04  3.93622611E-11 -5.34121549E-12 -1.98121240E-04
 -7.25964939E-06 -1.04099637E-13 -1.04800785E-12 -1.49264574E-12 -3.54666922E-12
 -4.84728772E-05  1.61133149E-12 -1.27835090E-13  2.03297047E-12  1.06927692E-11
 -3.02286220E-04 -1.51499372E-13 -6.93187183E-13 -1.10485411E-12  1.09065930E-12
 -3.15994526E-11 -7.04292723E-12  9.50712253E-04 -3.44549114E-05  2.73784437E-11
  1.13557511E-11 -1.08756860E-13  3.07640033E-12  2.37174168E-05 -6.92119834E-13
 -3.12940704E-13  5.22721874E-15 -5.28610429E-12 -1.59734068E-15 -4.43501077E-12
  5.19345955E-12 -1.61567673E-11  1.41795299E-12 -1.14476580E-11  3.02868588E-11
  1.52525829E-11 -1.68049777E-02 -1.93068114E-01  7.23695875E-09 -3.73181087E-04
 -4.25396532E-03  1.59312400E-10  9.26066038E-05  9.68320441E-04 -3.88381196E-11
  1.02913702E-12  3.92841229E-08  2.46871805E-06  2.08272176E-12  1.83044123E-12
  3.74522630E-13 -2.89753126E-06 -1.77621730E-05 -1.28379880E-12 -3.11433605E-12
  1.26313052E-11  1.14191468E-08 -1.97739568E-06  5.82532814E-13  4.47873734E-13
 -6.34812217E-05 -5.23321521E-04  4.31349240E-11  2.83335101E-12 -5.06367386E-05
 -3.39374318E-04 -3.64353416E-13  2.30931147E-12  6.42694622E-13 -1.21121485E-06
 -7.99422381E-06 -7.52261028E-14  1.69141926E-13 -4.29909807E-13 -3.66121585E-13
 -2.94227416E-11  9.20505489E-11  3.63466505E-12  3.08281249E-12 -1.27410648E-11
 -1.55638184E-11  1.50237417E-01  9.61409240E-01  2.85094707E-08  3.27829727E-03
  2.09824344E-02  6.25178317E-10 -6.62059822E-04 -4.24739222E-03 -1.34997901E-10
 -4.01515803E-12  3.85087862E-06  2.44167358E-05 -8.65198660E-12 -5.06732781E-12
  3.68340529E-12  1.02871185E-06  4.84677510E-06  4.94351701E-12  9.89806024E-13
 -1.70576121E-11 -3.55521086E-06 -2.25150107E-05 -2.02239057E-12 -1.11214643E-12
  2.10203437E-04  1.36818983E-03  6.80940637E-11 -8.15617005E-12 -3.22672219E-05
 -2.33598156E-04  9.74113026E-13 -6.45350158E-12 -5.69819071E-13  5.57621106E-07
  4.23064303E-06 -5.41820536E-13  9.50277476E-12  1.47070942E-12  2.12440394E-12
 -7.64784791E-12  1.35379154E-11  1.34391336E-12  3.17617553E-12 -1.92966049E-11
  1.89930300E-12 -1.88704979E-01  2.23361786E-02  2.18201557E-08 -4.15881889E-03
  4.93803457E-04  4.78032564E-10  9.49268564E-04 -1.16773423E-04 -9.87092272E-11
 -1.62863440E-12  2.35316675E-06 -1.85449255E-07  1.69596547E-12 -2.09785179E-12
 -3.60686123E-12 -1.78205807E-05  2.82591372E-06 -1.07602998E-12  1.16605148E-12
  1.59128136E-13 -1.87020007E-06  1.24056036E-07  4.76080284E-13 -9.24837769E-13
 -5.17595107E-04  7.07722809E-05  2.12724176E-11  5.67428285E-12 -3.38882504E-04
  5.12976452E-05 -2.86334948E-13  5.13508015E-14 -6.16612243E-13 -7.98891336E-06
  1.21886657E-06  4.21048636E-14  1.67661717E-13  5.36422550E-13 -5.12623636E-13
  1.61531611E-11 -4.97384946E-11 -4.14932087E-12  5.11727063E-12 -1.32992815E-11
  6.41623460E-12  9.62325141E-01 -1.49193409E-01 -2.62329107E-08  2.10022258E-02
 -3.25576319E-03 -5.74158215E-10 -4.25087042E-03  6.58165542E-04  1.19212681E-10
  4.22068175E-12  2.44519833E-05 -3.80921353E-06 -4.97238221E-12  8.96707027E-12
 -5.86852780E-12  4.94370524E-06 -9.06888889E-07  2.81979040E-12 -1.02728847E-12
  6.37329923E-12 -2.25490360E-05  3.51492867E-06 -1.22351886E-12  3.57727279E-13
  1.36826877E-03 -2.10264434E-04 -3.60803940E-11  6.44339519E-12 -2.32379271E-04
  3.38334077E-05  5.02145621E-13 -8.16474385E-13  1.10779507E-13  4.19948105E-06
 -5.97481994E-07  2.75761376E-13  9.49435133E-13 -2.88293548E-12  1.74324691E-12
 -8.79088811E-12  2.68695873E-11 -6.15058065E-12  1.79354706E-11 -1.61338989E-11
 -4.30184744E-11  7.69731188E-01  5.96906838E-01 -8.59157522E-08  1.67856428E-02
  1.30172792E-02 -1.88416641E-09 -3.36198381E-03 -2.60840571E-03  4.03866078E-10
  1.71571919E-12 -2.03629424E-05 -1.57639654E-05 -1.46568829E-11  1.12491704E-12
  9.69717022E-12 -1.01472270E-05 -7.66218071E-06  7.66242600E-12 -6.00432423E-12
 -3.35763865E-11  1.88771183E-05  1.46107013E-05 -3.54076968E-12  2.09084997E-13
  1.01226830E-03  7.87731581E-04 -1.76386226E-10 -2.46727498E-11  8.91994268E-05
  7.24002650E-05  1.34132758E-12 -1.34170202E-12  4.38780171E-13  9.97393506E-07
  8.52314034E-07 -5.32931160E-13 -5.72445693E-13 -6.83903855E-13  1.16266703E-12
 -1.00699270E-12  6.50805918E-12  8.17073337E-12 -2.77238675E-11  7.62788352E-11
  2.59753983E-11  1.54035319E-01  1.09265366E-01  7.46182644E-09  3.32678345E-03
  2.35763807E-03  1.60924508E-10 -5.80391696E-04 -4.05337992E-04 -2.05332726E-11
  7.18209957E-13  6.02467167E-06  4.40789025E-06 -1.91535569E-12  4.42439440E-13
  5.10307818E-12  1.70351125E-05  1.31174494E-05  9.35753305E-13 -4.82890357E-12
  2.24251688E-11 -5.81509520E-06 -4.26532082E-06 -4.11217007E-13  4.39040839E-12
  3.50507030E-06 -1.12254364E-05 -6.49514390E-11  6.57822706E-13  2.16372836E-04
  1.69617921E-04 -8.21192834E-14  7.87744608E-13 -2.10086478E-12 -5.52228211E-06
 -4.31136763E-06  8.99271876E-14  6.71355702E-13 -2.96550762E-13  1.15515969E-13
  3.07424676E-11 -9.61444715E-11 -1.27759747E-11  2.37244442E-11 -3.28883187E-11
 -2.24936215E-11  5.96711981E-01 -7.68356228E-01 -1.97902263E-08  1.30130039E-02
 -1.67553378E-02 -4.35796943E-10 -2.60747253E-03  3.35506597E-03  9.91311245E-11
  9.69846394E-12 -1.57605896E-05  2.03458063E-05  1.26123119E-12  1.49763566E-11
 -1.16402352E-12 -7.67304589E-06  1.02771541E-05 -9.10157138E-13 -3.27211581E-12
 -1.13754551E-11  1.46077413E-05 -1.88635050E-05  2.10906598E-13  3.70439805E-12
  7.87297675E-04 -1.00849486E-03 -6.57984823E-11 -7.28089784E-12  7.21679455E-05
 -8.67283060E-05 -4.44869780E-14  2.95053063E-12 -5.62142797E-13  8.46941014E-07
 -9.39138568E-07 -8.01528437E-13  4.17164586E-13 -1.48787705E-12  5.19974182E-13
  5.61734432E-12 -1.56479932E-11  4.89243457E-12 -9.75960958E-12  1.95546250E-11
  1.71840175E-11  1.09888282E-01 -1.61052638E-01 -2.49898509E-08  2.37123719E-03
 -3.47993195E-03 -5.48910866E-10 -4.08099207E-04  6.11388940E-04  1.21008856E-10
  3.05786028E-12  4.42354281E-06 -6.20298727E-06  5.15541823E-13  2.19336066E-12
 -1.64292269E-12  1.31191472E-05 -1.70711658E-05 -3.64794994E-13  1.21368750E-12
  1.68392329E-11 -4.27970726E-06  5.97952212E-06  1.12969442E-13  5.79229973E-12
 -1.03199777E-05 -1.34823398E-05 -7.11067022E-11  8.05574864E-12  1.69444579E-04
 -2.14678530E-04 -4.62417853E-14  1.46907444E-13 -5.85099944E-13 -4.30808554E-06
  5.49167003E-06  2.01519023E-13 -7.00697265E-13 -2.64809943E-13 -6.71375177E-14
  7.88822447E-02 -3.12603994E-01  4.47296536E-01  3.29889523E-01  1.02783252E-02
 -3.31547929E-03 -4.49836028E-11  8.87850930E-11  4.13627235E-04  9.83829931E-11
 -2.20761471E-10 -7.91318311E-04  6.13423728E-11 -2.83838630E-11 -9.90145949E-04
  1.49443062E-04 -4.88384921E-11  4.87149695E-12  4.04063033E-11  8.88822202E-12
 -1.59062527E-04 -5.39455258E-12  1.34545237E-11 -6.13595039E-11  1.03346515E-11
  4.26476060E-04  1.72598304E-11 -2.85644024E-12  1.03713834E-11  7.89378889E-13
  1.67664241E-13 -2.60509589E-11 -8.66296528E-05 -4.84601500E-04 -1.12276031E-12