HF file generated by AutoMR of MOKIT
Stability RHF                                                         Gen
Number of atoms                            I                2
Info1-9                                    I   N=           9
           6           5           0           0           0         110
           7           1           2
Charge                                     I                0
Multiplicity                               I                1
Number of electrons                        I               48
Number of alpha electrons                  I               24
Number of beta electrons                   I               24
Number of basis functions                  I               90
Number of independent functions            I               90
Number of point charges in /Mol/           I                0
Number of translation vectors              I                0
Atomic numbers                             I   N=           2
          24          24
Nuclear charges                            R   N=           2
  2.40000000E+01  2.40000000E+01
Current cartesian coordinates              R   N=           6
  0.00000000E+00  0.00000000E+00  0.00000000E+00  0.00000000E+00  0.00000000E+00
  5.66917840E+00
Force Field                                I                0
Int Atom Types                             I   N=           2
           0           0
MM charges                                 R   N=           2
  0.00000000E+00  0.00000000E+00
Integer atomic weights                     I   N=           2
          52          52
Real atomic weights                        R   N=           2
  5.19405097E+01  5.19405097E+01
Atom fragment info                         I   N=           2
           1           2
Atom residue num                           I   N=           2
           0           0
Nuclear spins                              I   N=           2
           0           0
Nuclear ZEff                               R   N=           2
 -2.47200000E+01 -2.47200000E+01
Nuclear QMom                               R   N=           2
  0.00000000E+00  0.00000000E+00
Nuclear GFac                               R   N=           2
  0.00000000E+00  0.00000000E+00
MicOpt                                     I   N=           2
          -1          -1
Number of contracted shells                I               30
Number of primitive shells                 I               72
Pure/Cartesian d shells                    I                0
Pure/Cartesian f shells                    I                0
Highest angular momentum                   I                3
Largest degree of contraction              I                8
Shell types                                I   N=          30
           0           0           0           0           0           0
           1           1           1          -2          -2          -2
           1          -2          -3           0           0           0
           0           0           0           1           1           1
          -2          -2          -2           1          -2          -3
Number of primitives per shell             I   N=          30
           8           4           2           1           1           1
           6           3           1           4           1           1
           1           1           1           8           4           2
           1           1           1           6           3           1
           4           1           1           1           1           1
Shell to atom map                          I   N=          30
           1           1           1           1           1           1
           1           1           1           1           1           1
           1           1           1           2           2           2
           2           2           2           2           2           2
           2           2           2           2           2           2
Primitive exponents                        R   N=          72
  2.54477807E+05  3.81317971E+04  8.67529306E+03  2.45500998E+03  7.99162178E+02
  2.86900215E+02  1.11254132E+02  4.38641526E+01  2.79326692E+02  8.62747324E+01
  1.35557561E+01  5.69781128E+00  8.56365826E+00  1.39882968E+00  5.72881711E-01
  9.00961713E-02  3.41258851E-02  1.30643989E+03  3.09253114E+02  9.89962740E+01
  3.67569165E+01  1.45666571E+01  5.87399374E+00  2.28909997E+01  3.08550018E+00
  1.21323291E+00  4.49316807E-01  4.37200745E+01  1.23912427E+01  4.26394420E+00
  1.55252218E+00  5.37619295E-01  1.64931731E-01  1.20675000E-01  5.10000000E-02
  1.14700000E+00  2.54477807E+05  3.81317971E+04  8.67529306E+03  2.45500998E+03
  7.99162178E+02  2.86900215E+02  1.11254132E+02  4.38641526E+01  2.79326692E+02
  8.62747324E+01  1.35557561E+01  5.69781128E+00  8.56365826E+00  1.39882968E+00
  5.72881711E-01  9.00961713E-02  3.41258851E-02  1.30643989E+03  3.09253114E+02
  9.89962740E+01  3.67569165E+01  1.45666571E+01  5.87399374E+00  2.28909997E+01
  3.08550018E+00  1.21323291E+00  4.49316807E-01  4.37200745E+01  1.23912427E+01
  4.26394420E+00  1.55252218E+00  5.37619295E-01  1.64931731E-01  1.20675000E-01
  5.10000000E-02  1.14700000E+00
Contraction coefficients                   R   N=          72
  2.42904776E-04  1.88435236E-03  9.80095844E-03  3.98250087E-02  1.29405437E-01
  3.06290018E-01  4.34628350E-01  2.24695629E-01 -2.43633579E-02 -1.15114954E-01
  5.50922663E-01  5.36113547E-01 -3.71230177E-01  1.16811695E+00  1.00000000E+00
  1.00000000E+00  1.00000000E+00  2.82928007E-03  2.27766292E-02  1.05645619E-01
  2.99499449E-01  4.77062454E-01  2.76542344E-01 -1.94121061E-02  3.86188758E-01
  6.76239089E-01  1.00000000E+00  2.20932593E-02  1.28014388E-01  3.86529103E-01
  6.41033014E-01  1.00000000E+00  1.00000000E+00  1.00000000E+00  1.00000000E+00
  1.00000000E+00  2.42904776E-04  1.88435236E-03  9.80095844E-03  3.98250087E-02
  1.29405437E-01  3.06290018E-01  4.34628350E-01  2.24695629E-01 -2.43633579E-02
 -1.15114954E-01  5.50922663E-01  5.36113547E-01 -3.71230177E-01  1.16811695E+00
  1.00000000E+00  1.00000000E+00  1.00000000E+00  2.82928007E-03  2.27766292E-02
  1.05645619E-01  2.99499449E-01  4.77062454E-01  2.76542344E-01 -1.94121061E-02
  3.86188758E-01  6.76239089E-01  1.00000000E+00  2.20932593E-02  1.28014388E-01
  3.86529103E-01  6.41033014E-01  1.00000000E+00  1.00000000E+00  1.00000000E+00
  1.00000000E+00  1.00000000E+00
Coordinates of each shell                  R   N=          90
  0.00000000E+00  0.00000000E+00  0.00000000E+00  0.00000000E+00  0.00000000E+00
  0.00000000E+00  0.00000000E+00  0.00000000E+00  0.00000000E+00  0.00000000E+00
  0.00000000E+00  0.00000000E+00  0.00000000E+00  0.00000000E+00  0.00000000E+00
  0.00000000E+00  0.00000000E+00  0.00000000E+00  0.00000000E+00  0.00000000E+00
  0.00000000E+00  0.00000000E+00  0.00000000E+00  0.00000000E+00  0.00000000E+00
  0.00000000E+00  0.00000000E+00  0.00000000E+00  0.00000000E+00  0.00000000E+00
  0.00000000E+00  0.00000000E+00  0.00000000E+00  0.00000000E+00  0.00000000E+00
  0.00000000E+00  0.00000000E+00  0.00000000E+00  0.00000000E+00  0.00000000E+00
  0.00000000E+00  0.00000000E+00  0.00000000E+00  0.00000000E+00  0.00000000E+00
  0.00000000E+00  0.00000000E+00  5.66917840E+00  0.00000000E+00  0.00000000E+00
  5.66917840E+00  0.00000000E+00  0.00000000E+00  5.66917840E+00  0.00000000E+00
  0.00000000E+00  5.66917840E+00  0.00000000E+00  0.00000000E+00  5.66917840E+00
  0.00000000E+00  0.00000000E+00  5.66917840E+00  0.00000000E+00  0.00000000E+00
  5.66917840E+00  0.00000000E+00  0.00000000E+00  5.66917840E+00  0.00000000E+00
  0.00000000E+00  5.66917840E+00  0.00000000E+00  0.00000000E+00  5.66917840E+00
  0.00000000E+00  0.00000000E+00  5.66917840E+00  0.00000000E+00  0.00000000E+00
  5.66917840E+00  0.00000000E+00  0.00000000E+00  5.66917840E+00  0.00000000E+00
  0.00000000E+00  5.66917840E+00  0.00000000E+00  0.00000000E+00  5.66917840E+00
Constraint Structure                       R   N=           6
  0.00000000E+00  0.00000000E+00  0.00000000E+00  0.00000000E+00  0.00000000E+00
  5.66917840E+00
Num ILSW                                   I              100
ILSW                                       I   N=         100
           0           0           0           0           2           1
           0           0           0           0           0          -1
           0           0           0           0           0           0
           0           0           0           0           0           0
           1           1           0           0           0           0
           0           0      100000           0          -1           0
           0           0           0           0           0           0
           0           0           0           1           0           0
           0           0           1           0           0           0
           0           0           4          40           0           0
           0           0           0           0           0           0
           0           0           0           0           0           0
           0           0           0           0           0           0
           0           0           0           0           0           0
           0           0           0           0           0           0
           0           0           0           0           0           0
           0           0           0           0
Num RLSW                                   I               40
RLSW                                       R   N=          40
  1.00000000E+00  1.00000000E+00  1.00000000E+00  1.00000000E+00  1.00000000E+00
  0.00000000E+00  0.00000000E+00  1.00000000E+00  0.00000000E+00  0.00000000E+00
  0.00000000E+00  0.00000000E+00  1.00000000E+00  0.00000000E+00  0.00000000E+00
  0.00000000E+00  0.00000000E+00  1.00000000E+00  0.00000000E+00  0.00000000E+00
  0.00000000E+00  0.00000000E+00  1.00000000E+00  0.00000000E+00  0.00000000E+00
  0.00000000E+00  0.00000000E+00  1.00000000E+00  0.00000000E+00  0.00000000E+00
  0.00000000E+00  0.00000000E+00  1.00000000E+00  0.00000000E+00  0.00000000E+00
  0.00000000E+00  0.00000000E+00  0.00000000E+00  1.00000000E+00  1.00000000E+00
ECP-MxAtEC                                 I           250000
ECP-MaxLECP                                I               10
ECP-MaxAtL                                 I          2250000
ECP-MxTECP                                 I         11250000
ECP-LenNCZ                                 I                0
ECP-KFirst                                 I   N=          20
           0           0           0           0           0           0
           0           0           0           0           0           0
           0           0           0           0           0           0
           0           0
ECP-KLast                                  I   N=          20
           0           0           0           0           0           0
           0           0           0           0           0           0
           0           0           0           0           0           0
           0           0
ECP-LMax                                   I   N=           2
           0           0
ECP-LPSkip                                 I   N=           2
           1           1
ECP-RNFroz                                 R   N=           2
  0.00000000E+00  0.00000000E+00
ECP-NLP                                    I                0
ECP-CLP1                                   R      0.000000000000000E+00
ECP-CLP2                                   R      0.000000000000000E+00
ECP-ZLP                                    R      0.000000000000000E+00
MxBond                                     I                1
NBond                                      I   N=           2
           0           0
IBond                                      I   N=           2
           0           0
RBond                                      R   N=           2
  0.00000000E+00  0.00000000E+00
Virial Ratio                               R      2.000014116054456E+00
SCF Energy                                 R     -2.086669893077687E+03
Total Energy                               R     -2.086669893077687E+03
S**2                                       R      5.674569458496144E+00
S**2 after annihilation                    R      1.770799823535651E+01
RMS Density                                R      1.813224320738972E-09
External E-field                           R   N=          35
  0.00000000E+00  0.00000000E+00  0.00000000E+00  0.00000000E+00  0.00000000E+00
  0.00000000E+00  0.00000000E+00  0.00000000E+00  0.00000000E+00  0.00000000E+00
  0.00000000E+00  0.00000000E+00  0.00000000E+00  0.00000000E+00  0.00000000E+00
  0.00000000E+00  0.00000000E+00  0.00000000E+00  0.00000000E+00  0.00000000E+00
  0.00000000E+00  0.00000000E+00  0.00000000E+00  0.00000000E+00  0.00000000E+00
  0.00000000E+00  0.00000000E+00  0.00000000E+00  0.00000000E+00  0.00000000E+00
  0.00000000E+00  0.00000000E+00  0.00000000E+00  0.00000000E+00  0.00000000E+00
IOpCl                                      I                0
IROHF                                      I                0
Alpha Orbital Energies                     R   N=          90
  2.00000000E+00  2.00000000E+00  2.00000000E+00  2.00000000E+00  2.00000000E+00
  2.00000000E+00  2.00000000E+00  2.00000000E+00  2.00000000E+00  2.00000000E+00
  2.00000000E+00  2.00000000E+00  2.00000000E+00  2.00000000E+00  2.00000000E+00
  2.00000000E+00  2.00000000E+00  2.00000000E+00  1.89920660E+00  1.16727951E+00
  1.13877866E+00  1.13877854E+00  1.03111814E+00  1.03111811E+00  9.68881893E-01
  9.68881865E-01  8.61221458E-01  8.61221337E-01  8.32720489E-01  1.00793402E-01
  0.00000000E+00  0.00000000E+00  0.00000000E+00  0.00000000E+00  0.00000000E+00
  0.00000000E+00  0.00000000E+00  0.00000000E+00  0.00000000E+00  0.00000000E+00
  0.00000000E+00  0.00000000E+00  0.00000000E+00  0.00000000E+00  0.00000000E+00
  0.00000000E+00  0.00000000E+00  0.00000000E+00  0.00000000E+00  0.00000000E+00
  0.00000000E+00  0.00000000E+00  0.00000000E+00  0.00000000E+00  0.00000000E+00
  0.00000000E+00  0.00000000E+00  0.00000000E+00  0.00000000E+00  0.00000000E+00
  0.00000000E+00  0.00000000E+00  0.00000000E+00  0.00000000E+00  0.00000000E+00
  0.00000000E+00  0.00000000E+00  0.00000000E+00  0.00000000E+00  0.00000000E+00
  0.00000000E+00  0.00000000E+00  0.00000000E+00  0.00000000E+00  0.00000000E+00
  0.00000000E+00  0.00000000E+00  0.00000000E+00  0.00000000E+00  0.00000000E+00
  0.00000000E+00  0.00000000E+00  0.00000000E+00  0.00000000E+00  0.00000000E+00
  0.00000000E+00  0.00000000E+00  0.00000000E+00  0.00000000E+00  0.00000000E+00
Alpha MO coefficients                      R   N=        8100
  8.50785429E-01  5.93094812E-03 -1.98638223E-03  1.35946122E-03 -5.80942236E-04
  1.87895129E-04  0.00000000E+00  0.00000000E+00  3.09317681E-07  0.00000000E+00
  0.00000000E+00 -2.01082940E-05  0.00000000E+00  0.00000000E+00  7.37638113E-05
 -7.56536576E-06  0.00000000E+00  0.00000000E+00 -1.88216188E-12  0.00000000E+00
  3.40983521E-05  0.00000000E+00  0.00000000E+00  6.87046820E-12  0.00000000E+00
 -1.39675637E-04  0.00000000E+00  0.00000000E+00  1.27017059E-12  0.00000000E+00
  0.00000000E+00  0.00000000E+00 -2.37129437E-04 -1.62510932E-05  0.00000000E+00
  0.00000000E+00  1.07040740E-11  0.00000000E+00 -7.02391878E-06  0.00000000E+00
  0.00000000E+00  4.78259040E-12  0.00000000E+00  0.00000000E+00  0.00000000E+00
 -5.21340096E-01 -3.63094541E-03  1.23761605E-03 -8.78299193E-04  4.29698177E-04
 -1.20692111E-04  0.00000000E+00  0.00000000E+00  1.66529349E-06  0.00000000E+00
  0.00000000E+00 -2.01746172E-05  0.00000000E+00  0.00000000E+00  7.45471980E-05
  5.62947479E-06  0.00000000E+00  0.00000000E+00  3.16965298E-12  0.00000000E+00
 -2.88103885E-05  0.00000000E+00  0.00000000E+00  6.75499815E-12  0.00000000E+00
  1.35647000E-04  0.00000000E+00  0.00000000E+00  1.38564065E-12  0.00000000E+00
  0.00000000E+00  0.00000000E+00 -2.45366397E-04  2.96849916E-05  0.00000000E+00
  0.00000000E+00 -2.54034118E-12  0.00000000E+00 -7.61293802E-06  0.00000000E+00
  0.00000000E+00  4.72692393E-12  0.00000000E+00  0.00000000E+00  0.00000000E+00
  5.21343213E-01  3.64182928E-03 -1.17225773E-03  7.33372688E-04 -1.93637622E-04
  1.02903587E-04  0.00000000E+00  0.00000000E+00 -3.06109146E-06  0.00000000E+00
  0.00000000E+00  4.97412620E-06  0.00000000E+00  0.00000000E+00 -1.94359924E-05
 -2.44745345E-06  0.00000000E+00  0.00000000E+00  6.48364352E-12  0.00000000E+00
  3.46001043E-06  0.00000000E+00  0.00000000E+00  8.74685658E-12  0.00000000E+00
  2.46625350E-05  0.00000000E+00  0.00000000E+00  2.77128129E-12  0.00000000E+00
  0.00000000E+00  0.00000000E+00  7.50764126E-05  3.34904961E-05  0.00000000E+00
  0.00000000E+00  6.87046820E-12  0.00000000E+00  2.98377742E-06  0.00000000E+00
  0.00000000E+00  1.11111600E-12  0.00000000E+00  0.00000000E+00  0.00000000E+00
  8.50787338E-01  5.93761759E-03 -1.94633215E-03  1.27065368E-03 -4.36289998E-04
  1.76994648E-04 -1.12225857E-11  0.00000000E+00  2.58713917E-06  0.00000000E+00
  0.00000000E+00  4.69766142E-06  0.00000000E+00  0.00000000E+00 -1.61731012E-05
 -5.61551771E-06  0.00000000E+00  1.01467554E-11  7.24574588E-12  0.00000000E+00
  1.85642491E-05  0.00000000E+00  0.00000000E+00 -5.77350269E-13  0.00000000E+00
 -4.14417840E-05  0.00000000E+00  0.00000000E+00  1.73205081E-12  0.00000000E+00
  0.00000000E+00  0.00000000E+00  4.07696783E-05  2.24613420E-05  0.00000000E+00
  0.00000000E+00 -2.77128129E-12  0.00000000E+00  5.30504597E-07  0.00000000E+00
  0.00000000E+00 -1.63346197E-12  0.00000000E+00  0.00000000E+00  0.00000000E+00
 -2.38807605E-01  7.93854512E-01  2.55335209E-02 -6.99162520E-03  2.43312638E-03
 -7.83752418E-04 -9.92120865E-10  7.42385669E-10 -4.39562060E-04  6.70597820E-11
 -2.80304117E-10  2.98211353E-05 -3.37441658E-10  5.26584498E-11 -2.83624863E-04
 -3.95838200E-05  3.06242226E-09 -7.80218101E-09  1.42559328E-09 -7.84308947E-10
 -1.97251505E-04  2.92590963E-09 -7.31109693E-09  1.51912403E-09 -4.57895508E-11
  5.33373243E-04  1.48803624E-09 -3.24562211E-09  3.42368710E-10 -3.25564468E-11
  3.68568373E-10  4.02267727E-10  9.86431595E-04  8.91456959E-05 -4.70097054E-11
 -5.15899284E-10  3.03397566E-10  0.00000000E+00  2.70366425E-05 -1.02206009E-10
  1.47341878E-10  3.26249182E-11  0.00000000E+00  1.59771659E-12  1.05151395E-11
  2.00705385E-01 -6.67204177E-01 -2.14914649E-02  5.95138119E-03 -2.17299453E-03
  6.72868502E-04  1.73825984E-09 -7.93625126E-10 -3.71141550E-04 -5.02761192E-11
  4.86802109E-10  3.58053381E-05  9.96229030E-11 -2.92648552E-11 -2.86021546E-04
  2.56903002E-05  9.22729979E-10 -4.99330263E-09 -6.48479822E-10 -3.61677078E-11
  1.71517564E-04  1.27945120E-09 -5.28875069E-09 -1.02802989E-09 -8.64875799E-11
 -5.33205362E-04  3.16442981E-10 -2.26531333E-09  2.88675135E-11 -3.07193843E-11
  0.00000000E+00 -7.10975559E-10  1.00068297E-03 -1.12707653E-04 -6.36600222E-10
 -3.17131754E-10 -2.50685487E-10 -1.70377110E-11  2.79866136E-05 -3.88274102E-11
  9.18525443E-11  1.01891799E-10  0.00000000E+00 -1.95643822E-12 -1.08538338E-11
 -2.00715145E-01  6.67163695E-01  2.12753395E-02 -5.43901712E-03  1.30103480E-03
 -5.76160058E-04 -8.02974807E-10  4.58502468E-10 -3.59617198E-04 -1.04724267E-10
  2.24949397E-10 -3.73937144E-05  1.77225991E-10  1.50320316E-10  3.85178658E-05
 -7.78371393E-05  2.67248159E-09 -9.44976592E-09  1.26814987E-09 -8.99823262E-10
 -1.32766424E-04  1.89204014E-09 -7.68778881E-09  1.26497444E-09 -1.93538829E-10
 -4.54434748E-05  9.17331633E-10 -4.12714036E-09  5.73886168E-10 -1.28425749E-10
 -2.59812696E-10 -3.75154991E-10 -1.68300844E-04 -1.44674040E-04 -1.24606880E-10
 -3.62590002E-10  5.96980178E-11 -1.60847100E-11 -7.86305738E-06  7.64508511E-11
 -1.44002710E-10  2.67846665E-11  0.00000000E+00  9.15526458E-13  8.09083520E-12
 -2.38815810E-01  7.93820492E-01  2.53518620E-02 -6.56101592E-03  1.70032482E-03
 -7.02441748E-04 -2.09509736E-09  7.29843454E-10  4.29920849E-04  2.86442068E-11
 -1.62701571E-11  3.17051937E-05 -1.18932905E-10  2.81572364E-10  1.08621609E-05
 -8.34232049E-05 -2.27087086E-09  1.05016415E-08  5.76368774E-10 -3.52680806E-10
 -1.64687271E-04 -1.36732348E-09  9.56752951E-09  1.11128380E-09 -1.68925518E-10
  4.70408047E-05 -4.36268724E-10  4.88273428E-09  1.87003752E-10 -1.43228884E-10
 -1.10460359E-10 -4.11231894E-10 -3.95899229E-06 -1.27174364E-04  1.08488201E-10
  9.24542579E-10  9.00666420E-11 -1.74750501E-11  3.09370716E-06  6.75760258E-11
 -1.05202774E-10  1.77077567E-10  0.00000000E+00  1.95167774E-12  1.16518513E-11
 -1.38460631E-04  4.71508665E-04 -8.48830105E-06  1.59466282E-06 -3.23000389E-04
  2.37616810E-04 -6.36017914E-06  2.89189707E-05  7.56548722E-01 -1.37959755E-07
  6.27261320E-07  1.64890660E-02  2.71723617E-08 -1.23169535E-07 -3.43796463E-03
 -3.29599426E-05  3.66655432E-10 -1.50238029E-09 -7.79422863E-11 -1.82743389E-11
 -1.04701142E-04  0.00000000E+00 -2.01213762E-10 -3.01376841E-11  0.00000000E+00
  1.08963146E-04 -1.41144788E-10  6.21029222E-10 -3.46410163E-13  0.00000000E+00
 -7.33904561E-09  3.15192675E-08  1.01673790E-03  1.98913971E-04  8.55804399E-11
 -4.10260478E-09 -5.18460542E-11  0.00000000E+00 -5.76516929E-07  0.00000000E+00
 -1.76081588E-10 -1.40023637E-10  0.00000000E+00  0.00000000E+00  2.88120859E-11
 -1.18694435E-04  3.95331657E-04 -3.30351902E-05  6.79131869E-05 -4.53351923E-04
  1.38452622E-04 -4.10694330E-06  2.94136204E-05 -6.41963374E-01 -8.90238797E-08
  6.37690544E-07 -1.39843335E-02  1.73952371E-08 -1.25172116E-07  2.88133881E-03
 -2.68516580E-05 -3.16091654E-10  1.74766662E-09 -3.15233247E-11 -2.37710860E-11
 -9.73606145E-05 -2.36627182E-10  3.77270962E-10 -3.88556731E-11  0.00000000E+00
  3.05866309E-05  1.06305079E-10 -5.99597843E-10 -8.33116438E-11  0.00000000E+00
 -4.20817743E-09  3.29423290E-08 -6.65723570E-04  1.61776452E-04 -1.22678436E-09
  3.34122226E-09  2.70199926E-10  0.00000000E+00  5.34528712E-06  2.78935528E-11
 -1.58643150E-10  2.12670288E-10  0.00000000E+00  3.82085852E-12  2.70012139E-11
 -1.10130540E-04  4.29499234E-04  1.51496277E-04 -4.07544793E-04  8.27247215E-04
  5.89729750E-04 -5.50994316E-06  2.46808611E-05  6.41954212E-01 -1.20428497E-07
  5.37383914E-07  1.40365158E-02  2.51326332E-08 -1.12053403E-07 -3.13785453E-03
 -3.48582315E-05  4.22397190E-10 -1.52580314E-09 -1.95721741E-11  0.00000000E+00
 -3.65185630E-05 -8.60978748E-11  6.76706335E-10  3.34863156E-11  0.00000000E+00
  4.72553685E-04  0.00000000E+00  7.11757421E-11 -1.74937132E-10  0.00000000E+00
 -8.46229280E-09  4.32567792E-08  2.07309125E-03  2.11851160E-04 -2.35977156E-09
  1.54462050E-08  2.87520434E-10  0.00000000E+00  2.93410964E-05 -5.72787643E-11
  2.29753184E-10 -1.06318553E-10  0.00000000E+00  1.82292557E-12  2.93076255E-11
  1.31208171E-04 -5.00549504E-04 -1.48095015E-04  4.01848464E-04 -7.63634472E-04
 -6.20541014E-04  4.84089574E-06 -3.46435782E-05  7.56540945E-01  1.05261584E-07
 -7.53717264E-07  1.65333479E-02 -2.18104360E-08  1.54771101E-07 -3.65562124E-03
  3.97605623E-05  4.49937611E-10 -2.41191357E-09  3.75277675E-12  0.00000000E+00
  5.30720762E-05  9.96109880E-11  1.91296565E-10  3.34863156E-12 -1.48305285E-11
 -4.83987457E-04 -3.34496230E-11  3.66645297E-10  1.26439709E-10  0.00000000E+00
  8.26538785E-09 -5.40885322E-08  2.21094237E-03 -2.41404409E-04 -2.48243235E-09
  1.40932119E-08 -2.53456768E-10  0.00000000E+00  2.88555261E-05  6.61024020E-11
 -1.81310975E-10 -2.52803397E-10 -1.05571018E-11 -5.50669169E-12 -4.68142925E-11
 -2.95317500E-09  1.02786007E-08  1.38746600E-09 -5.71986352E-10 -5.17456805E-09
  5.73391079E-09  8.45884433E-01 -1.97115420E-01  1.47271730E-05  1.83672245E-02
 -4.28010260E-03  3.21412678E-07 -3.63928155E-03  8.48087973E-04 -6.74896196E-08
 -6.09941809E-10 -5.21595930E-05  1.21554074E-05  3.10025279E-10  4.69303001E-10
 -1.60982543E-09  2.70856245E-07 -6.71745393E-08 -1.87644311E-10 -1.86226767E-11
  3.37192929E-09  1.74739476E-05 -4.07040750E-06  3.82279600E-10  0.00000000E+00
  1.02815763E-03 -2.39655976E-04  2.40714791E-08  4.10882933E-09  5.63269554E-06
 -1.38989531E-06 -4.87137713E-10  0.00000000E+00 -3.19625181E-11 -3.24522999E-06
  7.54452540E-07 -1.63706590E-12  3.20098453E-11 -4.66671619E-11 -1.36639193E-10
 -1.78264032E-09  5.67236796E-09 -1.05827246E-10  4.18888508E-09 -1.34522798E-08
 -2.69255110E-09  4.67263424E-01 -1.08640094E-01 -7.87004398E-06  1.01204757E-02
 -2.35302045E-03 -1.71620237E-07 -1.93707353E-03  4.50319687E-04  3.44053752E-08
 -3.86833316E-10  2.63560069E-05 -6.12578332E-06 -3.02524831E-10  1.48815740E-11
 -1.29546246E-09  9.15102242E-06 -2.13455736E-06 -1.76470797E-10 -1.05620240E-11
 -7.36903539E-10 -1.35679765E-05  3.15762059E-06  2.88574054E-10  0.00000000E+00
  4.11017653E-04 -9.54439685E-05 -2.87438261E-09  1.96991833E-09  1.82003554E-04
 -4.24563746E-05  1.07088874E-10  0.00000000E+00  2.99209348E-10 -6.09032536E-06
  1.41927555E-06  7.96525698E-13 -1.60761650E-11 -2.59508189E-10  2.29054985E-10
  5.95687210E-09 -2.06937776E-08  9.29561874E-10  5.07835163E-09  2.00040271E-09
 -1.50143490E-08  1.97292671E-01  8.47559310E-01 -3.08081663E-05  4.28396965E-03
  1.84037645E-02 -6.71973354E-07 -8.48902930E-04 -3.64698216E-03  1.41429862E-07
  1.67220727E-09 -1.21681561E-05 -5.22795176E-05 -2.85671523E-10  6.04871985E-10
  3.58183281E-09  7.39349804E-08  3.34445213E-07 -2.87040096E-10  0.00000000E+00
 -6.45277317E-09  4.07125410E-06  1.74821385E-05 -2.67097736E-10 -2.69271722E-11
  2.39983612E-04  1.03125348E-03 -4.75454556E-08 -8.70002682E-09  1.52340714E-06
  6.89424559E-06  2.85342854E-10  0.00000000E+00 -2.24318727E-10 -7.51972069E-07
 -3.22239600E-06  4.95310659E-11  1.46004983E-11  1.83089273E-10  8.51601695E-11
  4.11289332E-09 -1.32549962E-08  4.08239626E-09 -3.26922109E-09  1.70785017E-08
 -5.68410378E-09  1.08317803E-01  4.64218426E-01  2.04933346E-05  2.34600695E-03
  1.00542121E-02  4.45843091E-07 -4.48888788E-04 -1.92355449E-03 -9.06080158E-08
  4.46621159E-10  6.10452166E-06  2.61544304E-05 -5.20085263E-10 -5.31293563E-11
  2.94274040E-09  2.14029568E-06  9.20514967E-06 -3.37128505E-10  0.00000000E+00
  1.29566796E-09 -3.15329137E-06 -1.35273714E-05  6.70238942E-11 -1.85819965E-11
  9.49573654E-05  4.06420276E-04  1.46698454E-08 -4.68999199E-09  4.25703957E-05
  1.83081069E-04 -2.04965009E-10  0.00000000E+00 -7.09192396E-11 -1.42060602E-06
 -6.10297536E-06 -2.85025253E-11  0.00000000E+00  2.51997300E-10  4.22691935E-10
  1.44438422E-09 -5.69596439E-09 -2.67909408E-09  5.32674666E-09 -1.18690231E-08
 -7.63692380E-09 -4.70002189E-01  9.60676679E-02 -7.66497790E-06 -1.02536563E-02
  2.09584197E-03 -1.68091224E-07  2.16050452E-03 -4.41636870E-04  3.81261907E-08
  4.27104746E-10  3.36261588E-05 -6.87471086E-06 -1.85990400E-10 -2.58635256E-10
  2.16096195E-10 -1.77251331E-05  3.62692406E-06  9.33048767E-11  1.57793709E-11
 -6.40355359E-09 -2.31065260E-06  4.70350780E-07 -2.13427452E-10  0.00000000E+00
 -8.67783081E-04  1.77444813E-04 -2.83178280E-08 -2.65309534E-09 -3.52880369E-04
  7.22125801E-05  2.60668300E-10  0.00000000E+00 -3.43844681E-10 -6.31691091E-06
  1.29311645E-06 -1.86815550E-12 -2.08127826E-11 -2.80655395E-10  3.27275417E-10
 -3.19414574E-09  1.17717310E-08  1.98350261E-09 -7.48568090E-09  1.25302631E-08
  1.14184159E-08  8.50888722E-01 -1.74187864E-01 -1.34734432E-05  1.85166883E-02
 -3.79059776E-03 -2.94315925E-07 -3.77795658E-03  7.73377788E-04  6.41680870E-08
 -5.12093565E-10  5.64040465E-05 -1.15456737E-05  6.40615301E-11  4.71385901E-11
 -1.05545584E-09 -1.51501106E-05  3.09927828E-06  1.26660075E-10  0.00000000E+00
  7.30416064E-09 -1.13134264E-05  2.31709447E-06  4.63798288E-11  0.00000000E+00
  1.28522414E-03 -2.63062355E-04 -3.50955238E-08  4.14588714E-09 -3.01723200E-04
  6.17202134E-05  1.82489081E-10  0.00000000E+00 -4.33169549E-10  3.60935845E-06
 -7.37761296E-07 -1.69961897E-12 -3.76351159E-11  1.58230699E-10 -1.60358619E-10
 -3.01258388E-09  1.22901891E-08  5.13677421E-09 -1.62247808E-08  3.82938732E-08
  2.09242898E-08 -9.56633829E-02 -4.66966960E-01  1.70702047E-05 -2.08706345E-03
 -1.01877502E-02  3.73713648E-07  4.39897382E-04  2.14744504E-03 -8.58769790E-08
 -1.22304863E-09  6.84980538E-06  3.34391604E-05  9.61599552E-11 -3.32544347E-10
 -2.59176532E-10 -3.62681984E-06 -1.77240530E-05  1.09994773E-10 -1.15662638E-11
  1.63494619E-08 -4.61996093E-07 -2.24796620E-06  1.23512335E-10  1.06504225E-11
 -1.76953165E-04 -8.64091986E-04  7.10493281E-08  6.29192042E-09 -7.22096325E-05
 -3.52857948E-04 -1.65435332E-10  0.00000000E+00  1.13332454E-09 -1.29466428E-06
 -6.32868619E-06 -3.96464702E-11 -1.01938582E-11  2.86200055E-10  2.66991735E-10
  6.72199589E-09 -2.50484052E-08 -6.24341232E-09  1.55308585E-08 -2.44038150E-08
 -2.66268631E-08  1.74410265E-01  8.52558256E-01  3.79751459E-05  3.79541473E-03
  1.85528485E-02  8.30003063E-07 -7.74299521E-04 -3.78487600E-03 -1.80725008E-07
  1.73590804E-09  1.15582546E-05  5.64981629E-05  2.19277667E-10 -6.14946657E-11
  2.82476178E-09 -3.09496064E-06 -1.51174312E-05  2.22595445E-10  3.53735749E-11
 -1.93143073E-08 -2.32353780E-06 -1.13620177E-05 -5.93670864E-10 -1.89594147E-11
  2.63257539E-04  1.28668940E-03  9.58385861E-08 -1.12454559E-08 -6.16331012E-05
 -3.01068892E-04 -3.82994331E-10  0.00000000E+00  8.32612863E-10  7.34930384E-07
  3.58789323E-06 -7.13414036E-11  0.00000000E+00 -2.14074928E-10 -8.35729505E-11
  7.92981889E-02 -3.13726190E-01  4.50829695E-01  3.28844738E-01  1.06624921E-02
 -1.67944851E-03  1.51657497E-09 -2.73425366E-09  1.01613738E-03 -2.66479436E-09
  6.55002792E-09 -2.09885412E-03 -5.09402289E-09  4.85380129E-09 -1.84999624E-03
 -3.26546777E-03  9.28455922E-08 -3.06840568E-07  4.54085987E-08 -1.65225459E-08
 -2.50623622E-03  6.24361544E-08 -2.03841822E-07  2.84056332E-08 -1.03620244E-08
 -9.86948521E-04  3.75124641E-08 -1.31064112E-07  1.47310921E-08 -7.37308781E-09
  1.02286759E-09 -7.07376674E-09  9.49359467E-05 -6.62826123E-04  5.62533047E-09