HF file generated by AutoMR of MOKIT
Stability RHF                                                         Gen
Number of atoms                            I                2
Info1-9                                    I   N=           9
           6           5           0           0           0         110
           7           1           2
Charge                                     I                0
Multiplicity                               I                1
Number of electrons                        I               48
Number of alpha electrons                  I               24
Number of beta electrons                   I               24
Number of basis functions                  I               90
Number of independent functions            I               90
Number of point charges in /Mol/           I                0
Number of translation vectors              I                0
Atomic numbers                             I   N=           2
          24          24
Nuclear charges                            R   N=           2
  2.40000000E+01  2.40000000E+01
Current cartesian coordinates              R   N=           6
  0.00000000E+00  0.00000000E+00  0.00000000E+00  0.00000000E+00  0.00000000E+00
  5.66917840E+00
Force Field                                I                0
Int Atom Types                             I   N=           2
           0           0
MM charges                                 R   N=           2
  0.00000000E+00  0.00000000E+00
Integer atomic weights                     I   N=           2
          52          52
Real atomic weights                        R   N=           2
  5.19405097E+01  5.19405097E+01
Atom fragment info                         I   N=           2
           1           2
Atom residue num                           I   N=           2
           0           0
Nuclear spins                              I   N=           2
           0           0
Nuclear ZEff                               R   N=           2
 -2.47200000E+01 -2.47200000E+01
Nuclear QMom                               R   N=           2
  0.00000000E+00  0.00000000E+00
Nuclear GFac                               R   N=           2
  0.00000000E+00  0.00000000E+00
MicOpt                                     I   N=           2
          -1          -1
Number of contracted shells                I               30
Number of primitive shells                 I               72
Pure/Cartesian d shells                    I                0
Pure/Cartesian f shells                    I                0
Highest angular momentum                   I                3
Largest degree of contraction              I                8
Shell types                                I   N=          30
           0           0           0           0           0           0
           1           1           1          -2          -2          -2
           1          -2          -3           0           0           0
           0           0           0           1           1           1
          -2          -2          -2           1          -2          -3
Number of primitives per shell             I   N=          30
           8           4           2           1           1           1
           6           3           1           4           1           1
           1           1           1           8           4           2
           1           1           1           6           3           1
           4           1           1           1           1           1
Shell to atom map                          I   N=          30
           1           1           1           1           1           1
           1           1           1           1           1           1
           1           1           1           2           2           2
           2           2           2           2           2           2
           2           2           2           2           2           2
Primitive exponents                        R   N=          72
  2.54477807E+05  3.81317971E+04  8.67529306E+03  2.45500998E+03  7.99162178E+02
  2.86900215E+02  1.11254132E+02  4.38641526E+01  2.79326692E+02  8.62747324E+01
  1.35557561E+01  5.69781128E+00  8.56365826E+00  1.39882968E+00  5.72881711E-01
  9.00961713E-02  3.41258851E-02  1.30643989E+03  3.09253114E+02  9.89962740E+01
  3.67569165E+01  1.45666571E+01  5.87399374E+00  2.28909997E+01  3.08550018E+00
  1.21323291E+00  4.49316807E-01  4.37200745E+01  1.23912427E+01  4.26394420E+00
  1.55252218E+00  5.37619295E-01  1.64931731E-01  1.20675000E-01  5.10000000E-02
  1.14700000E+00  2.54477807E+05  3.81317971E+04  8.67529306E+03  2.45500998E+03
  7.99162178E+02  2.86900215E+02  1.11254132E+02  4.38641526E+01  2.79326692E+02
  8.62747324E+01  1.35557561E+01  5.69781128E+00  8.56365826E+00  1.39882968E+00
  5.72881711E-01  9.00961713E-02  3.41258851E-02  1.30643989E+03  3.09253114E+02
  9.89962740E+01  3.67569165E+01  1.45666571E+01  5.87399374E+00  2.28909997E+01
  3.08550018E+00  1.21323291E+00  4.49316807E-01  4.37200745E+01  1.23912427E+01
  4.26394420E+00  1.55252218E+00  5.37619295E-01  1.64931731E-01  1.20675000E-01
  5.10000000E-02  1.14700000E+00
Contraction coefficients                   R   N=          72
  2.42904776E-04  1.88435236E-03  9.80095844E-03  3.98250087E-02  1.29405437E-01
  3.06290018E-01  4.34628350E-01  2.24695629E-01 -2.43633579E-02 -1.15114954E-01
  5.50922663E-01  5.36113547E-01 -3.71230177E-01  1.16811695E+00  1.00000000E+00
  1.00000000E+00  1.00000000E+00  2.82928007E-03  2.27766292E-02  1.05645619E-01
  2.99499449E-01  4.77062454E-01  2.76542344E-01 -1.94121061E-02  3.86188758E-01
  6.76239089E-01  1.00000000E+00  2.20932593E-02  1.28014388E-01  3.86529103E-01
  6.41033014E-01  1.00000000E+00  1.00000000E+00  1.00000000E+00  1.00000000E+00
  1.00000000E+00  2.42904776E-04  1.88435236E-03  9.80095844E-03  3.98250087E-02
  1.29405437E-01  3.06290018E-01  4.34628350E-01  2.24695629E-01 -2.43633579E-02
 -1.15114954E-01  5.50922663E-01  5.36113547E-01 -3.71230177E-01  1.16811695E+00
  1.00000000E+00  1.00000000E+00  1.00000000E+00  2.82928007E-03  2.27766292E-02
  1.05645619E-01  2.99499449E-01  4.77062454E-01  2.76542344E-01 -1.94121061E-02
  3.86188758E-01  6.76239089E-01  1.00000000E+00  2.20932593E-02  1.28014388E-01
  3.86529103E-01  6.41033014E-01  1.00000000E+00  1.00000000E+00  1.00000000E+00
  1.00000000E+00  1.00000000E+00
Coordinates of each shell                  R   N=          90
  0.00000000E+00  0.00000000E+00  0.00000000E+00  0.00000000E+00  0.00000000E+00
  0.00000000E+00  0.00000000E+00  0.00000000E+00  0.00000000E+00  0.00000000E+00
  0.00000000E+00  0.00000000E+00  0.00000000E+00  0.00000000E+00  0.00000000E+00
  0.00000000E+00  0.00000000E+00  0.00000000E+00  0.00000000E+00  0.00000000E+00
  0.00000000E+00  0.00000000E+00  0.00000000E+00  0.00000000E+00  0.00000000E+00
  0.00000000E+00  0.00000000E+00  0.00000000E+00  0.00000000E+00  0.00000000E+00
  0.00000000E+00  0.00000000E+00  0.00000000E+00  0.00000000E+00  0.00000000E+00
  0.00000000E+00  0.00000000E+00  0.00000000E+00  0.00000000E+00  0.00000000E+00
  0.00000000E+00  0.00000000E+00  0.00000000E+00  0.00000000E+00  0.00000000E+00
  0.00000000E+00  0.00000000E+00  5.66917840E+00  0.00000000E+00  0.00000000E+00
  5.66917840E+00  0.00000000E+00  0.00000000E+00  5.66917840E+00  0.00000000E+00
  0.00000000E+00  5.66917840E+00  0.00000000E+00  0.00000000E+00  5.66917840E+00
  0.00000000E+00  0.00000000E+00  5.66917840E+00  0.00000000E+00  0.00000000E+00
  5.66917840E+00  0.00000000E+00  0.00000000E+00  5.66917840E+00  0.00000000E+00
  0.00000000E+00  5.66917840E+00  0.00000000E+00  0.00000000E+00  5.66917840E+00
  0.00000000E+00  0.00000000E+00  5.66917840E+00  0.00000000E+00  0.00000000E+00
  5.66917840E+00  0.00000000E+00  0.00000000E+00  5.66917840E+00  0.00000000E+00
  0.00000000E+00  5.66917840E+00  0.00000000E+00  0.00000000E+00  5.66917840E+00
Constraint Structure                       R   N=           6
  0.00000000E+00  0.00000000E+00  0.00000000E+00  0.00000000E+00  0.00000000E+00
  5.66917840E+00
Num ILSW                                   I              100
ILSW                                       I   N=         100
           0           0           0           0           2           1
           0           0           0           0           0          -1
           0           0           0           0           0           0
           0           0           0           0           0           0
           1           1           0           0           0           0
           0           0      100000           0          -1           0
           0           0           0           0           0           0
           0           0           0           1           0           0
           0           0           1           0           0           0
           0           0           4          40           0           0
           0           0           0           0           0           0
           0           0           0           0           0           0
           0           0           0           0           0           0
           0           0           0           0           0           0
           0           0           0           0           0           0
           0           0           0           0           0           0
           0           0           0           0
Num RLSW                                   I               40
RLSW                                       R   N=          40
  1.00000000E+00  1.00000000E+00  1.00000000E+00  1.00000000E+00  1.00000000E+00
  0.00000000E+00  0.00000000E+00  1.00000000E+00  0.00000000E+00  0.00000000E+00
  0.00000000E+00  0.00000000E+00  1.00000000E+00  0.00000000E+00  0.00000000E+00
  0.00000000E+00  0.00000000E+00  1.00000000E+00  0.00000000E+00  0.00000000E+00
  0.00000000E+00  0.00000000E+00  1.00000000E+00  0.00000000E+00  0.00000000E+00
  0.00000000E+00  0.00000000E+00  1.00000000E+00  0.00000000E+00  0.00000000E+00
  0.00000000E+00  0.00000000E+00  1.00000000E+00  0.00000000E+00  0.00000000E+00
  0.00000000E+00  0.00000000E+00  0.00000000E+00  1.00000000E+00  1.00000000E+00
ECP-MxAtEC                                 I           250000
ECP-MaxLECP                                I               10
ECP-MaxAtL                                 I          2250000
ECP-MxTECP                                 I         11250000
ECP-LenNCZ                                 I                0
ECP-KFirst                                 I   N=          20
           0           0           0           0           0           0
           0           0           0           0           0           0
           0           0           0           0           0           0
           0           0
ECP-KLast                                  I   N=          20
           0           0           0           0           0           0
           0           0           0           0           0           0
           0           0           0           0           0           0
           0           0
ECP-LMax                                   I   N=           2
           0           0
ECP-LPSkip                                 I   N=           2
           1           1
ECP-RNFroz                                 R   N=           2
  0.00000000E+00  0.00000000E+00
ECP-NLP                                    I                0
ECP-CLP1                                   R      0.000000000000000E+00
ECP-CLP2                                   R      0.000000000000000E+00
ECP-ZLP                                    R      0.000000000000000E+00
MxBond                                     I                1
NBond                                      I   N=           2
           0           0
IBond                                      I   N=           2
           0           0
RBond                                      R   N=           2
  0.00000000E+00  0.00000000E+00
Virial Ratio                               R      2.000014116054456E+00
SCF Energy                                 R     -2.086669893077687E+03
Total Energy                               R     -2.086669893077687E+03
S**2                                       R      5.674569458496144E+00
S**2 after annihilation                    R      1.770799823535651E+01
RMS Density                                R      1.813224320738972E-09
External E-field                           R   N=          35
  0.00000000E+00  0.00000000E+00  0.00000000E+00  0.00000000E+00  0.00000000E+00
  0.00000000E+00  0.00000000E+00  0.00000000E+00  0.00000000E+00  0.00000000E+00
  0.00000000E+00  0.00000000E+00  0.00000000E+00  0.00000000E+00  0.00000000E+00
  0.00000000E+00  0.00000000E+00  0.00000000E+00  0.00000000E+00  0.00000000E+00
  0.00000000E+00  0.00000000E+00  0.00000000E+00  0.00000000E+00  0.00000000E+00
  0.00000000E+00  0.00000000E+00  0.00000000E+00  0.00000000E+00  0.00000000E+00
  0.00000000E+00  0.00000000E+00  0.00000000E+00  0.00000000E+00  0.00000000E+00
IOpCl                                      I                0
IROHF                                      I                0
Alpha Orbital Energies                     R   N=          90
  2.00000000E+00  2.00000000E+00  1.99999998E+00  1.99999993E+00  1.99999958E+00
  1.99999885E+00  1.99999878E+00  1.99999871E+00  1.99999844E+00  1.99999844E+00
  1.99999825E+00  1.99999825E+00  1.99999456E+00  1.99999361E+00  1.99999361E+00
  1.99999343E+00  1.99999240E+00  1.99999240E+00  1.61557033E+00  1.06613075E+00
  1.06395494E+00  1.06395494E+00  1.01411818E+00  1.01411818E+00  9.85881824E-01
  9.85881824E-01  9.36045062E-01  9.36045062E-01  9.33869246E-01  3.84429673E-01
  7.60078578E-06  7.60078578E-06  6.56925643E-06  6.38881443E-06  6.38881443E-06
  5.44442734E-06  1.74974937E-06  1.74974937E-06  1.55932412E-06  1.55932412E-06
  1.28745483E-06  1.21822303E-06  1.15357902E-06  4.19824324E-07  7.29319376E-08
  2.25706253E-08  7.94422728E-15  5.30275734E-15  7.10675900E-16  6.13710148E-16
  5.52594075E-16  5.34136100E-16  3.90758001E-16  2.89781157E-16  2.60377891E-16
  2.11756165E-16  2.06257529E-16  1.62278667E-16  1.55237675E-16  1.06261932E-16
  9.25491375E-17  8.13568428E-17  7.03645258E-17  4.88126833E-17  3.69809802E-17
  2.76196621E-17  2.25498341E-17  1.91493499E-17  1.33274022E-17  4.31411203E-18
  1.45378860E-18  4.07970548E-19 -2.53275431E-18 -4.35147979E-18 -5.97633579E-18
 -1.70699188E-17 -3.78992828E-17 -4.99197904E-17 -6.20851969E-17 -6.69493254E-17
 -1.03213793E-16 -1.30059408E-16 -1.42441540E-16 -1.76108692E-16 -1.81876118E-16
 -1.84216161E-16 -2.24769852E-16 -2.80367087E-16 -2.92590603E-16 -3.62622911E-16
Alpha MO coefficients                      R   N=        8100
  7.05876456E-01  3.84911871E-03 -1.54915084E-03  1.25958991E-03 -5.18804514E-04
  1.58121523E-04  2.03297981E-10 -2.82361678E-10 -3.37181238E-05 -1.47177238E-10
  1.89468012E-10 -9.03223764E-06 -4.68306060E-11  6.05614352E-11  8.09199195E-05
 -6.64061345E-06  1.15150930E-13 -1.60093758E-13 -5.27229859E-16  6.34171879E-18
  3.26047851E-05  1.71764736E-13 -2.29539151E-13  1.40520023E-16  2.52764584E-16
 -1.42034942E-04 -5.37838176E-15 -1.97101945E-14 -1.86736986E-16 -4.93232905E-16
 -9.95254612E-13  1.14428275E-12 -2.49055230E-04 -2.36310560E-05  3.31234088E-14
 -1.58964145E-13 -1.12607914E-16  4.50642747E-16 -7.53205874E-06 -1.40080099E-14
  1.37936382E-14  2.94568129E-16 -7.88387246E-17  1.86118565E-16 -2.41885608E-16
 -7.05876240E-01 -3.84911381E-03  1.54913987E-03 -1.25959720E-03  5.18804166E-04
 -1.58121398E-04  1.29960432E-10  8.06136961E-11 -3.37193529E-05 -2.87266213E-11
 -2.37096339E-11 -9.03151655E-06 -1.00749387E-11 -8.16010662E-12  8.09201369E-05
  6.64060992E-06  1.04432620E-15 -5.07482456E-14 -1.33814053E-16 -2.93161294E-16
 -3.26047775E-05 -2.46355462E-14 -4.32003795E-14  9.05992189E-17 -3.80325391E-16
  1.42034929E-04  5.43531170E-14 -7.73989746E-14 -3.31824742E-16  2.92782001E-16
 -2.36967761E-13  1.19185562E-13 -2.49055232E-04  2.36310774E-05  1.08803231E-13
 -2.14427670E-13 -1.71484614E-16 -8.30240671E-17 -7.53205869E-06 -1.00512001E-14
  7.97570276E-15 -6.00627263E-17 -6.68365370E-17  8.95558559E-17 -1.85925714E-16
  7.05882323E-01  3.84837820E-03 -1.51215315E-03  1.12699763E-03 -3.23073441E-04
  1.43433843E-04 -1.94430923E-10  1.97935210E-10  3.81883230E-05  9.23858277E-11
 -4.51783389E-11 -2.77812794E-05  3.01484683E-11 -1.59171768E-11 -1.01777969E-05
 -3.85334136E-06 -7.07042750E-14  4.02644494E-14  2.47241516E-16  3.83502437E-16
  1.15643577E-05 -1.11620647E-13  6.20979729E-14 -1.28001178E-16  2.28169760E-17
 -8.50663977E-06  7.85079903E-15  1.13159496E-14  4.11797938E-16  5.40976643E-16
  5.15665837E-13 -3.81397088E-14  1.72993556E-05  2.88008674E-05 -7.27227465E-14
  1.53873121E-13  3.55542282E-17 -5.59484361E-16  1.28602941E-06  8.44415338E-15
 -5.17281190E-16 -2.76263275E-16  5.19245999E-17 -3.01963279E-16  1.01373811E-16
  7.05882540E-01  3.84837899E-03 -1.51215849E-03  1.12699456E-03 -3.23073733E-04
  1.43433937E-04  6.97488895E-11 -2.92270177E-10 -3.81894182E-05  3.74349871E-11
  9.06475530E-12  2.77819855E-05  1.05323915E-11  6.00280485E-12  1.01779864E-05
 -3.85334334E-06  1.59405829E-14  1.48108050E-14  1.97063576E-17  1.03941978E-16
  1.15643694E-05  3.46634633E-14  2.09812459E-14  1.90362593E-16  1.36586278E-16
 -8.50669151E-06 -3.80120029E-14  2.61745556E-14 -9.01371408E-17 -5.86036020E-16
  5.03031183E-13 -3.62637709E-13 -1.72992550E-05  2.88008551E-05 -1.12109677E-13
  1.46061001E-13  5.39457519E-17  1.28657609E-16 -1.28602681E-06  8.55362891E-15
 -3.16881841E-15 -1.09028137E-16 -3.64272007E-17 -7.56794635E-17 -4.25897805E-17
  3.54409754E-02 -1.67453791E-01  4.45004510E-01  3.22932059E-01  1.21000730E-02
 -3.93271392E-03  2.85160483E-10  1.91717785E-10 -2.92453207E-02 -5.63780713E-11
 -1.72888692E-10  1.47869030E-02 -2.02710247E-11 -5.45120944E-11  3.74851897E-03
  6.68821720E-05  5.91473211E-14  1.42562330E-13  2.66817158E-16  2.50961996E-16
 -8.15578524E-05  7.81998465E-14  2.04890168E-13  1.53552921E-16  1.81527558E-16
  8.01647191E-04  4.16839548E-14  9.51862259E-15 -3.78313111E-16 -1.37009667E-16
 -4.70375219E-15 -1.17511817E-12  2.09678381E-03  4.99230895E-04  1.72925476E-13
  7.15791336E-14  1.93193996E-16  9.04962453E-16  2.67812590E-05  7.59172725E-16
 -1.43446671E-14 -1.11493141E-16 -3.41836397E-16 -1.20066345E-16 -2.07718595E-16
 -3.54409879E-02  1.67453814E-01 -4.45004583E-01 -3.22932112E-01 -1.21000747E-02
  3.93271448E-03 -1.74057703E-10  9.09323537E-11 -2.92453175E-02  8.27038522E-11
  1.04070579E-11  1.47869033E-02  2.70420261E-11  2.22184562E-12  3.74851892E-03
 -6.68821937E-05  7.68934354E-14  3.55099181E-14 -1.83556626E-15  7.62365576E-16
  8.15578810E-05  1.08602462E-13  2.15335903E-14 -1.32220487E-15  7.30051086E-16
 -8.01647263E-04  2.91900960E-14  6.58428743E-14  1.29498417E-16  4.18109873E-16
  3.34039560E-13  1.75980142E-14  2.09678380E-03 -4.99230812E-04  1.86178463E-13
  1.39061956E-13 -4.70268269E-17 -3.85975087E-16  2.67812605E-05  1.66987676E-15
 -8.21020676E-15  1.60303288E-16  1.37610608E-16  5.76472889E-16  3.88514190E-16
  2.54581647E-02 -1.33656532E-01  4.41780826E-01  3.20358318E-01  1.04455197E-02
 -3.39584704E-03 -3.42366938E-10  5.14108929E-10 -7.19452772E-03  1.48473131E-10
 -1.44752894E-10  1.51397408E-02  4.87225014E-11 -4.94765455E-11  4.01524147E-03
  1.16867807E-04 -1.05569178E-13  1.01718183E-13 -8.83159662E-16  4.25968380E-16
 -1.72697384E-04 -1.71017333E-13  1.68629834E-13 -6.81355761E-16 -1.03870916E-17
  4.44901971E-04  2.40882147E-14 -2.47533818E-14  2.20792893E-16 -5.67253322E-16
  9.13908960E-13 -7.01442659E-13  4.40946387E-05 -5.14571417E-04  9.58864056E-15
  3.28290848E-15  6.29390900E-16  2.12434802E-16  1.32612157E-05  1.71345934E-14
 -1.78872264E-14 -5.89414077E-17  6.29070047E-19 -3.38753723E-17  1.31461572E-16
  2.54581412E-02 -1.33656501E-01  4.41780752E-01  3.20358265E-01  1.04455177E-02
 -3.39584639E-03 -2.50809047E-10  2.83979129E-10  7.19452440E-03  8.50423708E-11
 -1.00064857E-10 -1.51397389E-02  2.84574686E-11 -3.33528857E-11 -4.01524103E-03
  1.16867795E-04  4.18291156E-14 -5.62141372E-14 -8.82951264E-17  2.04307118E-18
 -1.72697372E-04  8.88381227E-14 -1.04541625E-13  3.87444478E-16 -6.35464980E-17
  4.44901841E-04 -5.24150958E-14  4.94086115E-14 -9.95135430E-18 -1.51045810E-16
  5.85827628E-13 -7.12855497E-13 -4.40942964E-05 -5.14571500E-04 -1.11230510E-13
  1.56176613E-13 -1.32061208E-17  2.84001733E-16 -1.32612115E-05  1.56617135E-14
 -1.82828774E-14  4.00833147E-16  1.76114438E-16  1.07956647E-16 -2.07329322E-16
  8.32141274E-02 -2.83023632E-01  3.57494489E-02  3.57843670E-02 -8.53514676E-04
  6.54489556E-05  1.70268402E-10 -2.92660704E-10  6.60484994E-01 -4.31839189E-12
  5.60002066E-11 -3.45363391E-01 -3.45471919E-12  2.02212320E-11 -1.12405331E-01
  3.89019058E-04  6.68516149E-14 -5.23653690E-14  7.08728078E-16 -9.12971398E-16
 -3.30992194E-05  5.17130317E-14 -7.38050288E-14 -2.17882478E-17 -7.62895417E-16
 -3.05967833E-04  1.47443770E-13 -2.68266660E-14  3.85746741E-17 -1.52639150E-16
  7.93226127E-13  4.11252367E-14 -2.65843726E-03  3.56265885E-04  6.55194528E-13
 -1.27343567E-13  2.71463414E-17  2.51247934E-16 -1.19077787E-04  2.50356860E-14
  1.67076424E-15 -7.18320695E-17  8.40103034E-17 -1.93639118E-16  2.58256224E-16
  8.32141280E-02 -2.83023631E-01  3.57494462E-02  3.57843651E-02 -8.53514751E-04
  6.54489910E-05 -1.33398846E-09  8.45348844E-11 -6.60484993E-01  3.52036967E-10
 -4.73297663E-11  3.45363391E-01  1.21424971E-10 -1.53352587E-11  1.12405331E-01
  3.89019057E-04  2.86670215E-13 -5.06533023E-14 -6.51562505E-17 -2.78363798E-16
 -3.30992181E-05  4.37989067E-13 -6.69856094E-14  2.65227503E-16 -3.04833155E-16
 -3.05967841E-04  4.06043233E-14 -2.71556026E-14 -4.40051142E-16 -1.81157733E-16
  1.18437684E-12 -1.54458376E-13  2.65843727E-03  3.56265888E-04  4.32967635E-13
 -1.57687758E-13 -2.82350850E-16  2.61194330E-16  1.19077787E-04  2.56682723E-14
  8.50052787E-16  3.50906976E-16  1.50085154E-16 -3.79826308E-16 -1.26047401E-16
 -1.24280529E-01  4.18579031E-01 -1.94734545E-02 -2.76139129E-02  2.58144624E-03
  7.78161909E-04 -7.13450476E-10 -7.93748983E-10  6.20829896E-01  8.57271738E-11
  2.57630297E-10 -2.26696729E-01  3.35611936E-11  8.66875936E-11 -7.63086340E-02
  3.84426536E-04  2.57558715E-16 -1.65995174E-13 -1.10443515E-15 -4.57686612E-16
  1.28425060E-04 -6.59488551E-14 -2.90124927E-13 -8.92939652E-16 -2.18185827E-16
  1.37700859E-03  1.33511861E-13  7.68993911E-14 -4.56085837E-16  2.85556334E-16
  4.80034304E-13  1.47860415E-12  1.87373617E-03  3.84123980E-04  4.65581339E-13
  1.00387159E-13 -7.96124185E-16 -4.13943641E-16  5.94153278E-05  3.28170725E-14
  3.59404765E-14  5.45345002E-16  9.26544884E-17  1.44493487E-16  1.71028495E-16
  1.24280529E-01 -4.18579033E-01  1.94734549E-02  2.76139133E-02 -2.58144624E-03
 -7.78161907E-04 -1.31899365E-09 -6.41402498E-10  6.20829898E-01  3.76368178E-10
  2.49626636E-10 -2.26696729E-01  1.28489434E-10  8.25598436E-11 -7.63086341E-02
 -3.84426536E-04  2.87931476E-13  1.57159742E-13 -7.82303110E-17  1.81178643E-16
 -1.28425059E-04  4.43457087E-13  2.74264521E-13  8.97959600E-17  3.33265680E-16
 -1.37700859E-03  2.59097266E-16 -8.53381487E-14 -2.46257246E-16 -3.59227574E-16
  1.71245313E-12  1.64583057E-12  1.87373617E-03 -3.84123974E-04  1.02007711E-13
 -1.85873520E-13  2.28470487E-19 -4.46940333E-16  5.94153277E-05  3.93508645E-14
  3.71574925E-14  2.18254855E-16 -8.14604255E-17  1.43763540E-16  3.61675724E-18
 -1.94359517E-01  6.57905225E-01 -6.21833792E-02 -6.51180092E-02 -1.64573515E-03
 -4.30675208E-04 -3.70987600E-09  2.79246508E-10 -4.01722681E-01  1.16592994E-09
 -1.00652825E-10  1.50073715E-01  3.93745048E-10 -3.35070738E-11  5.02741562E-02
 -2.39872933E-04 -8.11850277E-13  6.45080857E-14  1.95829106E-16  4.71202016E-16
 -2.21136858E-04 -1.33897135E-12  1.09485862E-13 -4.55802701E-17 -4.96775261E-16
 -4.17410538E-04  2.03083810E-13 -3.07894216E-14  3.46213827E-17  4.73509055E-16
  6.18867750E-12 -6.56684386E-13 -4.83153610E-04 -2.42100770E-04  1.15681428E-13
 -9.35711766E-14  3.57174394E-17 -3.32382057E-16 -1.34339931E-05  1.44325684E-13
 -1.54722561E-14  9.52370404E-17 -3.56648875E-17  1.61270479E-16  5.84069120E-18
  1.94359524E-01 -6.57905257E-01  6.21833845E-02  6.51180139E-02  1.64573525E-03
  4.30675174E-04 -2.51663649E-09  3.99563903E-10 -4.01722669E-01  7.66037317E-10
 -9.69787314E-11  1.50073711E-01  2.59119771E-10 -3.37333410E-11  5.02741548E-02
  2.39872929E-04  4.16363663E-13 -6.10629712E-14  3.19292288E-16 -2.21263245E-16
  2.21136858E-04  8.07437296E-13 -1.09915671E-13  5.20012107E-16 -2.35522044E-16
  4.17410547E-04 -3.98541709E-13  2.92922168E-14 -1.97952923E-16  2.51441185E-16
  5.02462288E-12 -4.52927874E-13 -4.83153639E-04  2.42100759E-04 -1.08308678E-12
  3.51581984E-14  1.13619575E-17  4.77655729E-16 -1.34339950E-05  1.39558437E-13
 -1.38447234E-14  3.57356037E-16 -2.22968837E-16 -1.99111771E-17 -5.14905823E-17
 -2.16034596E-01  7.31810121E-01 -7.46434772E-02 -7.58373822E-02 -1.09178972E-03
  3.39008437E-04  1.05251121E-09  1.09390449E-09  2.69319614E-01 -2.62770219E-10
 -3.57958646E-10 -9.64854766E-02 -9.15287520E-11 -1.20303756E-10 -3.21849411E-02
  1.16921845E-04  2.81483520E-13  2.34897659E-13  4.51631320E-16 -2.23076740E-16
 -3.35488984E-05  3.71525280E-13  3.97880264E-13  3.52102721E-16 -1.41199604E-16
 -1.25724203E-04  1.86979438E-13 -9.44693145E-14  1.92200026E-16 -2.15290976E-16
 -1.92722107E-13 -2.14029787E-12 -7.00304464E-04  1.08794677E-04  9.42977051E-13
 -2.37346004E-13 -3.83560585E-16  1.32146665E-16 -4.33062780E-05  6.81966624E-15
 -5.16359611E-14 -6.77959951E-17 -1.69960650E-16 -1.56300301E-16 -6.90372314E-17
 -2.16034586E-01  7.31810092E-01 -7.46434752E-02 -7.58373799E-02 -1.09178968E-03
  3.39008463E-04 -1.36975519E-09  1.24397348E-09 -2.69319630E-01  3.86765988E-10
 -3.08737000E-10  9.64854823E-02  1.32534837E-10 -1.07044177E-10  3.21849430E-02
  1.16921854E-04  3.61380506E-13 -1.86903538E-13  2.52032587E-16 -2.28815104E-16
 -3.35488890E-05  5.10093406E-13 -3.42082415E-13  1.06918637E-16 -1.51594882E-16
 -1.25724191E-04  1.46857868E-13  1.09259644E-13  1.15576055E-16  1.93816376E-17
  9.86713474E-13 -1.55885880E-12  7.00304449E-04  1.08794688E-04  8.77365694E-13
  2.03294924E-13  2.03551742E-17  7.02795699E-17  4.33062776E-05  1.04338845E-14
 -4.79582597E-14  3.80020715E-19 -4.13608588E-18  1.16669442E-16 -6.42353828E-17
 -8.16532603E-10  2.62458497E-09 -1.90213768E-10 -2.18489643E-10 -1.55589379E-12
 -3.92778464E-13  6.93338237E-01  2.73974209E-01 -8.10486547E-11 -2.13362638E-01
 -8.43107404E-02 -9.00847318E-11 -7.21627258E-02 -2.85152681E-02 -2.67173479E-11
  8.41183405E-14  1.35511254E-04  5.35475857E-05  8.99111135E-16 -1.01555283E-15
 -5.82744941E-13  2.36967358E-04  9.36382001E-05  2.68695228E-16  3.62314416E-16
  6.84032274E-13 -6.62852958E-05 -2.61927882E-05  2.29431855E-16 -7.78305644E-16
 -1.23336785E-03 -4.87368162E-04 -7.73646209E-13 -1.57849091E-13 -1.33183937E-04
 -5.26279414E-05 -6.72293843E-16  4.60306766E-16 -1.77669560E-14 -3.14033902E-05
 -1.24091223E-05 -2.73905782E-16 -2.44101590E-16  1.20833854E-16 -1.79847720E-16
  1.26538056E-09 -3.66445816E-09  4.56575860E-10  4.43749704E-10  4.70657376E-12
 -9.11751797E-13  6.93338240E-01  2.73974212E-01 -9.18781944E-10 -2.13362639E-01
 -8.43107410E-02  3.26922247E-10 -7.21627259E-02 -2.85152683E-02  1.09832617E-10
  4.26334048E-13 -1.35511255E-04 -5.35475863E-05 -1.30429602E-15  4.08897895E-16
  4.89278381E-13 -2.36967359E-04 -9.36382009E-05 -1.23445721E-15 -3.87294528E-16
 -8.66992200E-13  6.62852955E-05  2.61927879E-05 -5.68617048E-16  2.17828649E-16
 -1.23336785E-03 -4.87368162E-04  2.38764633E-12  4.48272143E-13  1.33183935E-04
  5.26279397E-05 -5.63381549E-16 -3.10532130E-16  1.16600698E-13 -3.14033902E-05
 -1.24091223E-05 -3.08242958E-16  1.21057228E-16  1.09881159E-16  2.31140715E-16
 -7.92658343E-10  2.07817371E-09  1.30722789E-10  2.87312457E-11  3.19629905E-12
 -3.37523456E-12  2.73974210E-01 -6.93338239E-01 -5.05880582E-10 -8.43107406E-02
  2.13362639E-01  1.94711702E-10 -2.85152682E-02  7.21627259E-02  6.49269192E-11
 -2.66883333E-13  5.35475859E-05 -1.35511255E-04  5.15504115E-17  5.88920057E-17
 -6.20728812E-13  9.36382004E-05 -2.36967359E-04 -1.43756350E-15 -5.83220741E-16
 -8.89063790E-13 -2.61927882E-05  6.62852955E-05  8.11100274E-17  2.95638863E-16
 -4.87368163E-04  1.23336785E-03 -2.22076627E-12 -6.35419621E-13 -5.26279410E-05
  1.33183935E-04 -1.14619166E-15  1.88279277E-16 -9.12189044E-14 -1.24091223E-05
  3.14033901E-05 -2.07358072E-16 -2.11941264E-16 -9.17767566E-18  4.67400444E-16
  1.60813331E-10 -1.10490130E-10  2.20856883E-10  1.62587018E-10  6.93227705E-12
  3.97863762E-14  2.73974211E-01 -6.93338238E-01 -1.60036040E-09 -8.43107409E-02
  2.13362638E-01  4.32346012E-10 -2.85152683E-02  7.21627258E-02  1.49808290E-10
  7.34991127E-13 -5.35475861E-05  1.35511254E-04  1.35731182E-15  4.71155129E-16
  2.37865161E-13 -9.36382007E-05  2.36967358E-04  3.76998125E-16 -2.27973523E-16
  1.14791232E-12  2.61927880E-05 -6.62852957E-05  1.15578915E-15  4.51290091E-16
 -4.87368162E-04  1.23336785E-03 -7.80200557E-13  3.64887450E-13  5.26279401E-05
 -1.33183936E-04 -1.65545811E-16 -4.04446380E-16  1.43771270E-14 -1.24091223E-05
  3.14033901E-05 -1.49743728E-16  1.44582324E-16 -2.28275785E-16 -2.14805723E-16
 -9.23307106E-11  2.46293575E-10  1.20396163E-10  7.94406428E-11  3.46866191E-12
 -5.06198971E-13 -5.02510203E-01 -5.51815736E-01  9.28983916E-10  1.16997413E-01
  1.28477021E-01 -4.19099148E-10  4.10970972E-02  4.51294814E-02 -1.38136486E-10
  5.61504293E-13 -1.16143788E-04 -1.27539639E-04 -1.73965543E-16  7.26064378E-16
  4.83428268E-14 -1.61212686E-04 -1.77030628E-04  5.45238418E-16  4.02344067E-16
  3.09966101E-13 -6.21614301E-05 -6.82606151E-05 -1.18318242E-15  1.10656471E-15
  1.15060947E-04  1.26350549E-04 -1.33817994E-12  5.98336357E-13 -3.61854454E-04