HF file generated by AutoMR of MOKIT
Stability RHF                                                         Gen
Number of atoms                            I                2
Info1-9                                    I   N=           9
           6           5           0           0           0         110
           7           1           2
Charge                                     I                0
Multiplicity                               I                1
Number of electrons                        I               48
Number of alpha electrons                  I               24
Number of beta electrons                   I               24
Number of basis functions                  I               90
Number of independent functions            I               90
Number of point charges in /Mol/           I                0
Number of translation vectors              I                0
Atomic numbers                             I   N=           2
          24          24
Nuclear charges                            R   N=           2
  2.40000000E+01  2.40000000E+01
Current cartesian coordinates              R   N=           6
  0.00000000E+00  0.00000000E+00  0.00000000E+00  0.00000000E+00  0.00000000E+00
  5.66917840E+00
Force Field                                I                0
Int Atom Types                             I   N=           2
           0           0
MM charges                                 R   N=           2
  0.00000000E+00  0.00000000E+00
Integer atomic weights                     I   N=           2
          52          52
Real atomic weights                        R   N=           2
  5.19405097E+01  5.19405097E+01
Atom fragment info                         I   N=           2
           1           2
Atom residue num                           I   N=           2
           0           0
Nuclear spins                              I   N=           2
           0           0
Nuclear ZEff                               R   N=           2
 -2.47200000E+01 -2.47200000E+01
Nuclear QMom                               R   N=           2
  0.00000000E+00  0.00000000E+00
Nuclear GFac                               R   N=           2
  0.00000000E+00  0.00000000E+00
MicOpt                                     I   N=           2
          -1          -1
Number of contracted shells                I               30
Number of primitive shells                 I               72
Pure/Cartesian d shells                    I                0
Pure/Cartesian f shells                    I                0
Highest angular momentum                   I                3
Largest degree of contraction              I                8
Shell types                                I   N=          30
           0           0           0           0           0           0
           1           1           1          -2          -2          -2
           1          -2          -3           0           0           0
           0           0           0           1           1           1
          -2          -2          -2           1          -2          -3
Number of primitives per shell             I   N=          30
           8           4           2           1           1           1
           6           3           1           4           1           1
           1           1           1           8           4           2
           1           1           1           6           3           1
           4           1           1           1           1           1
Shell to atom map                          I   N=          30
           1           1           1           1           1           1
           1           1           1           1           1           1
           1           1           1           2           2           2
           2           2           2           2           2           2
           2           2           2           2           2           2
Primitive exponents                        R   N=          72
  2.54477807E+05  3.81317971E+04  8.67529306E+03  2.45500998E+03  7.99162178E+02
  2.86900215E+02  1.11254132E+02  4.38641526E+01  2.79326692E+02  8.62747324E+01
  1.35557561E+01  5.69781128E+00  8.56365826E+00  1.39882968E+00  5.72881711E-01
  9.00961713E-02  3.41258851E-02  1.30643989E+03  3.09253114E+02  9.89962740E+01
  3.67569165E+01  1.45666571E+01  5.87399374E+00  2.28909997E+01  3.08550018E+00
  1.21323291E+00  4.49316807E-01  4.37200745E+01  1.23912427E+01  4.26394420E+00
  1.55252218E+00  5.37619295E-01  1.64931731E-01  1.20675000E-01  5.10000000E-02
  1.14700000E+00  2.54477807E+05  3.81317971E+04  8.67529306E+03  2.45500998E+03
  7.99162178E+02  2.86900215E+02  1.11254132E+02  4.38641526E+01  2.79326692E+02
  8.62747324E+01  1.35557561E+01  5.69781128E+00  8.56365826E+00  1.39882968E+00
  5.72881711E-01  9.00961713E-02  3.41258851E-02  1.30643989E+03  3.09253114E+02
  9.89962740E+01  3.67569165E+01  1.45666571E+01  5.87399374E+00  2.28909997E+01
  3.08550018E+00  1.21323291E+00  4.49316807E-01  4.37200745E+01  1.23912427E+01
  4.26394420E+00  1.55252218E+00  5.37619295E-01  1.64931731E-01  1.20675000E-01
  5.10000000E-02  1.14700000E+00
Contraction coefficients                   R   N=          72
  2.42904776E-04  1.88435236E-03  9.80095844E-03  3.98250087E-02  1.29405437E-01
  3.06290018E-01  4.34628350E-01  2.24695629E-01 -2.43633579E-02 -1.15114954E-01
  5.50922663E-01  5.36113547E-01 -3.71230177E-01  1.16811695E+00  1.00000000E+00
  1.00000000E+00  1.00000000E+00  2.82928007E-03  2.27766292E-02  1.05645619E-01
  2.99499449E-01  4.77062454E-01  2.76542344E-01 -1.94121061E-02  3.86188758E-01
  6.76239089E-01  1.00000000E+00  2.20932593E-02  1.28014388E-01  3.86529103E-01
  6.41033014E-01  1.00000000E+00  1.00000000E+00  1.00000000E+00  1.00000000E+00
  1.00000000E+00  2.42904776E-04  1.88435236E-03  9.80095844E-03  3.98250087E-02
  1.29405437E-01  3.06290018E-01  4.34628350E-01  2.24695629E-01 -2.43633579E-02
 -1.15114954E-01  5.50922663E-01  5.36113547E-01 -3.71230177E-01  1.16811695E+00
  1.00000000E+00  1.00000000E+00  1.00000000E+00  2.82928007E-03  2.27766292E-02
  1.05645619E-01  2.99499449E-01  4.77062454E-01  2.76542344E-01 -1.94121061E-02
  3.86188758E-01  6.76239089E-01  1.00000000E+00  2.20932593E-02  1.28014388E-01
  3.86529103E-01  6.41033014E-01  1.00000000E+00  1.00000000E+00  1.00000000E+00
  1.00000000E+00  1.00000000E+00
Coordinates of each shell                  R   N=          90
  0.00000000E+00  0.00000000E+00  0.00000000E+00  0.00000000E+00  0.00000000E+00
  0.00000000E+00  0.00000000E+00  0.00000000E+00  0.00000000E+00  0.00000000E+00
  0.00000000E+00  0.00000000E+00  0.00000000E+00  0.00000000E+00  0.00000000E+00
  0.00000000E+00  0.00000000E+00  0.00000000E+00  0.00000000E+00  0.00000000E+00
  0.00000000E+00  0.00000000E+00  0.00000000E+00  0.00000000E+00  0.00000000E+00
  0.00000000E+00  0.00000000E+00  0.00000000E+00  0.00000000E+00  0.00000000E+00
  0.00000000E+00  0.00000000E+00  0.00000000E+00  0.00000000E+00  0.00000000E+00
  0.00000000E+00  0.00000000E+00  0.00000000E+00  0.00000000E+00  0.00000000E+00
  0.00000000E+00  0.00000000E+00  0.00000000E+00  0.00000000E+00  0.00000000E+00
  0.00000000E+00  0.00000000E+00  5.66917840E+00  0.00000000E+00  0.00000000E+00
  5.66917840E+00  0.00000000E+00  0.00000000E+00  5.66917840E+00  0.00000000E+00
  0.00000000E+00  5.66917840E+00  0.00000000E+00  0.00000000E+00  5.66917840E+00
  0.00000000E+00  0.00000000E+00  5.66917840E+00  0.00000000E+00  0.00000000E+00
  5.66917840E+00  0.00000000E+00  0.00000000E+00  5.66917840E+00  0.00000000E+00
  0.00000000E+00  5.66917840E+00  0.00000000E+00  0.00000000E+00  5.66917840E+00
  0.00000000E+00  0.00000000E+00  5.66917840E+00  0.00000000E+00  0.00000000E+00
  5.66917840E+00  0.00000000E+00  0.00000000E+00  5.66917840E+00  0.00000000E+00
  0.00000000E+00  5.66917840E+00  0.00000000E+00  0.00000000E+00  5.66917840E+00
Constraint Structure                       R   N=           6
  0.00000000E+00  0.00000000E+00  0.00000000E+00  0.00000000E+00  0.00000000E+00
  5.66917840E+00
Num ILSW                                   I              100
ILSW                                       I   N=         100
           0           0           0           0           2           1
           0           0           0           0           0          -1
           0           0           0           0           0           0
           0           0           0           0           0           0
           1           1           0           0           0           0
           0           0      100000           0          -1           0
           0           0           0           0           0           0
           0           0           0           1           0           0
           0           0           1           0           0           0
           0           0           4          40           0           0
           0           0           0           0           0           0
           0           0           0           0           0           0
           0           0           0           0           0           0
           0           0           0           0           0           0
           0           0           0           0           0           0
           0           0           0           0           0           0
           0           0           0           0
Num RLSW                                   I               40
RLSW                                       R   N=          40
  1.00000000E+00  1.00000000E+00  1.00000000E+00  1.00000000E+00  1.00000000E+00
  0.00000000E+00  0.00000000E+00  1.00000000E+00  0.00000000E+00  0.00000000E+00
  0.00000000E+00  0.00000000E+00  1.00000000E+00  0.00000000E+00  0.00000000E+00
  0.00000000E+00  0.00000000E+00  1.00000000E+00  0.00000000E+00  0.00000000E+00
  0.00000000E+00  0.00000000E+00  1.00000000E+00  0.00000000E+00  0.00000000E+00
  0.00000000E+00  0.00000000E+00  1.00000000E+00  0.00000000E+00  0.00000000E+00
  0.00000000E+00  0.00000000E+00  1.00000000E+00  0.00000000E+00  0.00000000E+00
  0.00000000E+00  0.00000000E+00  0.00000000E+00  1.00000000E+00  1.00000000E+00
ECP-MxAtEC                                 I           250000
ECP-MaxLECP                                I               10
ECP-MaxAtL                                 I          2250000
ECP-MxTECP                                 I         11250000
ECP-LenNCZ                                 I                0
ECP-KFirst                                 I   N=          20
           0           0           0           0           0           0
           0           0           0           0           0           0
           0           0           0           0           0           0
           0           0
ECP-KLast                                  I   N=          20
           0           0           0           0           0           0
           0           0           0           0           0           0
           0           0           0           0           0           0
           0           0
ECP-LMax                                   I   N=           2
           0           0
ECP-LPSkip                                 I   N=           2
           1           1
ECP-RNFroz                                 R   N=           2
  0.00000000E+00  0.00000000E+00
ECP-NLP                                    I                0
ECP-CLP1                                   R      0.000000000000000E+00
ECP-CLP2                                   R      0.000000000000000E+00
ECP-ZLP                                    R      0.000000000000000E+00
MxBond                                     I                1
NBond                                      I   N=           2
           0           0
IBond                                      I   N=           2
           0           0
RBond                                      R   N=           2
  0.00000000E+00  0.00000000E+00
Virial Ratio                               R      2.000014116054456E+00
SCF Energy                                 R     -2.086669893077687E+03
Total Energy                               R     -2.086669893077687E+03
S**2                                       R      5.674569458496144E+00
S**2 after annihilation                    R      1.770799823535651E+01
RMS Density                                R      1.813224320738972E-09
External E-field                           R   N=          35
  0.00000000E+00  0.00000000E+00  0.00000000E+00  0.00000000E+00  0.00000000E+00
  0.00000000E+00  0.00000000E+00  0.00000000E+00  0.00000000E+00  0.00000000E+00
  0.00000000E+00  0.00000000E+00  0.00000000E+00  0.00000000E+00  0.00000000E+00
  0.00000000E+00  0.00000000E+00  0.00000000E+00  0.00000000E+00  0.00000000E+00
  0.00000000E+00  0.00000000E+00  0.00000000E+00  0.00000000E+00  0.00000000E+00
  0.00000000E+00  0.00000000E+00  0.00000000E+00  0.00000000E+00  0.00000000E+00
  0.00000000E+00  0.00000000E+00  0.00000000E+00  0.00000000E+00  0.00000000E+00
IOpCl                                      I                0
IROHF                                      I                0
Alpha Orbital Energies                     R   N=          90
  2.00000000E+00  2.00000000E+00  2.00000000E+00  2.00000000E+00  2.00000000E+00
  2.00000000E+00  2.00000000E+00  2.00000000E+00  2.00000000E+00  2.00000000E+00
  2.00000000E+00  2.00000000E+00  2.00000000E+00  2.00000000E+00  2.00000000E+00
  2.00000000E+00  2.00000000E+00  2.00000000E+00  1.65273724E+00  1.07176105E+00
  1.06817096E+00  1.06816974E+00  1.01507359E+00  1.01507329E+00  9.84926966E-01
  9.84926663E-01  9.31834625E-01  9.31833412E-01  9.28443389E-01  3.47049073E-01
  0.00000000E+00  0.00000000E+00  0.00000000E+00  0.00000000E+00  0.00000000E+00
  0.00000000E+00  0.00000000E+00  0.00000000E+00  0.00000000E+00  0.00000000E+00
  0.00000000E+00  0.00000000E+00  0.00000000E+00  0.00000000E+00  0.00000000E+00
  0.00000000E+00  0.00000000E+00  0.00000000E+00  0.00000000E+00  0.00000000E+00
  0.00000000E+00  0.00000000E+00  0.00000000E+00  0.00000000E+00  0.00000000E+00
  0.00000000E+00  0.00000000E+00  0.00000000E+00  0.00000000E+00  0.00000000E+00
  0.00000000E+00  0.00000000E+00  0.00000000E+00  0.00000000E+00  0.00000000E+00
  0.00000000E+00  0.00000000E+00  0.00000000E+00  0.00000000E+00  0.00000000E+00
  0.00000000E+00  0.00000000E+00  0.00000000E+00  0.00000000E+00  0.00000000E+00
  0.00000000E+00  0.00000000E+00  0.00000000E+00  0.00000000E+00  0.00000000E+00
  0.00000000E+00  0.00000000E+00  0.00000000E+00  0.00000000E+00  0.00000000E+00
  0.00000000E+00  0.00000000E+00  0.00000000E+00  0.00000000E+00  0.00000000E+00
Alpha MO coefficients                      R   N=        8100
  6.95763835E-01  4.84655133E-03 -1.63369270E-03  1.13511355E-03 -5.14739760E-04
  1.56439301E-04 -5.05199198E-11  1.79859455E-11  2.63961712E-06  3.63033109E-11
  2.88584392E-12 -2.12738029E-05 -4.68995764E-11 -1.88757913E-12  7.66011329E-05
 -6.55210644E-06 -4.70404961E-12  1.06271686E-11 -4.42618340E-12  5.06820855E-12
  3.23013317E-05  1.52408780E-11 -2.93435103E-11  2.35972830E-11  6.58506217E-12
 -1.41320856E-04 -1.00163179E-11  1.80324391E-11 -1.04497283E-11  6.29037602E-13
  4.60604963E-11 -1.89104399E-11 -2.48420731E-04 -2.40153638E-05  2.05044301E-11
 -4.50812613E-11 -8.35719522E-12 -1.90628620E-11 -7.51891992E-06  1.56197520E-11
 -7.96585852E-12  1.46045321E-11  3.95488669E-12 -9.69494830E-12 -2.09319565E-11
 -7.15224085E-01 -4.98235920E-03  1.67787066E-03 -1.16350399E-03  5.23664439E-04
 -1.60400359E-04 -8.13677483E-11 -9.16577972E-11  2.60391466E-06 -1.32800152E-11
  2.65477535E-11 -2.12858943E-05  5.22549720E-11 -1.55737766E-11  7.65647145E-05
  6.65871794E-06 -3.27910187E-12  2.34002635E-11 -1.43084379E-11 -1.03936198E-11
 -3.26194086E-05 -2.22158550E-11 -1.79999203E-11  1.05730425E-11 -1.36382256E-11
  1.41555866E-04  3.37498487E-11  1.10562943E-11 -4.62438508E-12  1.98900031E-11
 -3.08565484E-11  3.21963906E-11 -2.47938839E-04  2.32226698E-05  3.14908455E-11
 -1.89742171E-11  7.79416009E-12  7.51051928E-12 -7.48353779E-06 -5.57789547E-12
  8.81261936E-12  4.47220218E-12  6.55697919E-12  2.08114644E-12  3.08476200E-12
  7.15226637E-01  4.99124107E-03 -1.62441398E-03  1.04507570E-03 -3.30694622E-04
  1.45776437E-04 -5.16189646E-11  1.87433365E-11 -1.25741113E-06  3.45632716E-11
  2.74340601E-12 -7.35453536E-07 -3.52066077E-11 -5.92707903E-12 -2.58592125E-07
 -3.96058814E-06 -7.65956641E-12  2.21192574E-11  6.05244022E-12  5.38253881E-12
  1.19840666E-05  1.55063989E-11 -2.27585698E-11  1.37385033E-11  1.23136234E-12
 -1.04709863E-05 -3.02874224E-11  8.01463504E-12 -1.97096031E-11 -6.63208178E-12
  1.52301434E-11 -8.42852587E-12  1.40506505E-05  2.84078899E-05  1.16339855E-11
 -1.33035531E-11 -9.84548762E-14 -8.41024241E-12  1.17960795E-06  1.70387651E-11
 -7.49010553E-12  1.05912907E-11  5.14089008E-12 -6.08804180E-12 -1.20015195E-11
  6.95766458E-01  4.85568216E-03 -1.57873865E-03  1.01337014E-03 -3.16371789E-04
  1.41406923E-04  8.03273337E-11  8.91459154E-11  1.32994834E-06  7.34824468E-12
 -2.40303084E-11  1.48079348E-07 -3.73703431E-11  2.47666390E-12  2.37159376E-06
 -3.77841764E-06  1.01335599E-11 -2.25276078E-11 -8.61811482E-12 -3.17379972E-12
  1.10885136E-05 -2.42874416E-11 -3.24301671E-12 -4.59985597E-12 -8.45639786E-12
 -6.56900638E-06  1.94647150E-11  3.17180674E-11  2.61200079E-11  2.60576604E-11
  6.48774617E-12  6.25119261E-12 -2.08972150E-05  2.90595279E-05  3.96111119E-12
 -2.67276411E-11 -1.10379888E-11  2.13253081E-12 -1.38657154E-06  1.43638059E-11
  6.92577592E-12 -1.20136146E-11  1.36207252E-11  5.36722979E-12  7.94102767E-12
 -2.19696713E-01  7.30338585E-01  2.35306585E-02 -6.49721064E-03  2.36597500E-03
 -6.87940050E-04 -3.58536613E-09  5.05944883E-09 -1.69029184E-04 -1.31214241E-09
  3.47320805E-10  6.50463687E-05  1.46814063E-09 -3.14920677E-10 -2.95960773E-04
  2.93673103E-05  2.80197987E-09  1.48217371E-09 -1.33354223E-09 -5.05789999E-10
 -1.23449034E-04 -3.37234964E-10  5.19023161E-10  1.73402146E-09  1.71006875E-09
  5.63602198E-04  7.51005028E-10  1.08895435E-09  5.24025878E-10  5.30049762E-11
 -5.08974247E-10  1.75166865E-11  1.00848170E-03  1.06956595E-04 -7.14167112E-11
  8.47199313E-10 -6.56074185E-10  5.26784215E-10  2.65014249E-05 -1.89750126E-09
  2.42749743E-10 -1.13694189E-09  2.19434820E-10  1.65673341E-10 -1.60925516E-09
  2.21452782E-01 -7.36175762E-01 -2.37167119E-02  6.54591630E-03 -2.37935802E-03
  6.91945252E-04 -2.24091249E-08 -1.72938906E-08 -1.70259339E-04  2.35680914E-09
  3.42090718E-09  6.48193453E-05 -4.13458556E-09 -5.30139320E-09 -2.95993957E-04
 -2.96597462E-05  9.10023429E-10  4.73822462E-09  1.94903472E-09 -1.79361975E-09
  1.23843803E-04  5.55130484E-10 -1.29939131E-09 -1.81969199E-09 -1.03784674E-09
 -5.64041142E-04  8.38793882E-10  4.66123423E-10 -3.57203845E-11 -2.18099974E-09
  2.69129140E-10  6.39562684E-10  1.00799326E-03 -1.05915885E-04 -8.73709191E-10
 -6.85571710E-10  3.84190857E-11  3.66995968E-10  2.64523025E-05  8.32089899E-11
 -8.89168589E-10  6.96308444E-10 -5.84890557E-10 -9.08976935E-10  2.12567137E-10
 -2.21468694E-01  7.36162465E-01  2.34645323E-02 -6.14310331E-03  1.68996830E-03
 -5.05544892E-04 -3.94727493E-09  5.37806142E-09 -1.49985523E-04 -8.17757991E-11
 -7.37184533E-10 -2.84467094E-05 -2.55709997E-10  1.12612164E-09 -4.91962961E-06
  3.67540618E-05  2.48543530E-10  5.13185880E-09 -2.39993050E-09  3.18302945E-10
 -4.95741109E-05  1.10213605E-09 -7.98034138E-10  1.61742190E-09  2.49684979E-09
  5.74111984E-05 -3.93999438E-09  3.87678646E-09 -1.36258115E-09  6.15073991E-10
  3.97209045E-10 -5.23856152E-10 -5.72860106E-05 -1.30396279E-04  4.55487053E-10
  1.35817941E-10 -3.46783225E-10  1.25056793E-09 -6.29410111E-06  5.50922990E-10
  5.36986631E-10  1.80381460E-09  1.25460906E-09 -4.95982494E-10  3.99887941E-10
 -2.19712751E-01  7.30325182E-01  2.32764713E-02 -6.09118856E-03  1.67108634E-03
 -5.00055457E-04  2.23954612E-08  1.67941207E-08  1.48674125E-04 -2.93440349E-09
 -2.00964687E-09  2.89634689E-05  4.26806176E-09  3.64807021E-09  2.56615226E-06
  3.65117784E-05 -7.91491024E-09 -2.46391389E-09 -3.65584163E-09  3.46047151E-09
 -4.85912597E-05 -1.70549297E-10 -1.81497784E-09  1.04054252E-09  2.61174292E-09
  5.29233148E-05 -4.83929234E-09  3.11200151E-10 -1.03645337E-09  3.41823853E-09
  1.17698837E-09 -1.17161356E-09  6.53093541E-05 -1.31242635E-04  1.86555009E-09
 -1.20086011E-09  4.78485891E-10  1.54015569E-10  6.50255591E-06  4.82073806E-10
 -2.00575097E-10 -2.79071356E-10  3.81507321E-11  4.38536551E-10  1.17709484E-09
 -3.29749445E-05  9.34515260E-05 -4.06053747E-05  1.81559139E-04 -6.67921463E-04
 -5.35615877E-05 -5.31327214E-06 -1.03161050E-05  4.55815016E-01 -1.19327821E-07
 -2.22306438E-07  9.96389028E-03  2.91031239E-08  4.18660832E-08 -1.99517875E-03
 -6.25692638E-06  1.69625530E-09 -2.56199729E-09 -3.78229506E-09 -5.20860947E-10
 -1.01676051E-04 -4.40745909E-09  3.44027524E-09  4.02840530E-09  3.59177863E-09
 -8.02132109E-05  4.70718445E-09 -3.31245877E-09 -7.29726505E-10 -2.33596546E-09
 -1.41818376E-08 -1.32886075E-08  1.43839462E-04  1.02773889E-04 -1.14006358E-08
 -7.95426666E-11  3.02768812E-09  1.40355948E-09 -1.35762920E-05  1.92931057E-09
  2.79408445E-10  3.60502867E-09  5.97615643E-10 -1.89614698E-10  2.23287932E-10
 -5.94073223E-05  2.18784198E-04  5.43087508E-05 -7.43372689E-05 -1.64158858E-04
  3.23882189E-04  3.07726259E-05  3.00650984E-06 -8.81273563E-01  6.73956521E-07
  6.44780323E-08 -1.93042157E-02 -1.38733940E-07 -1.21537270E-08  4.07066767E-03
 -2.99934822E-06  1.07602062E-08 -9.00841555E-10 -2.06662649E-09  2.73799840E-09
 -1.34618235E-04 -2.04279979E-09  1.83391396E-09  1.00081904E-09 -1.85648660E-09
  2.22056944E-04  3.19477036E-09 -3.57769161E-09 -2.55542285E-10 -7.62301419E-11
  4.34969393E-08  5.16338633E-09 -1.45763055E-03  2.39841971E-04 -7.02834547E-09
 -1.20222829E-09 -6.92365251E-11 -1.68774263E-09 -3.45964044E-06 -4.01564624E-10
 -1.40805811E-10 -2.26841129E-10 -5.05795255E-10 -1.03976654E-09  7.20046857E-10
 -5.62047914E-05  2.46522569E-04  1.51312596E-04 -3.85031468E-04  6.59192065E-04
  6.36095563E-04 -1.01168870E-05 -2.01000012E-05  8.81268791E-01 -2.22316135E-07
 -4.35849535E-07  1.93333411E-02  4.56463585E-08  8.44729126E-08 -4.22636767E-03
  3.61560670E-06  1.94242035E-09 -3.16006707E-09  2.96292263E-09  1.82741900E-09
 -8.93480530E-05 -3.89376745E-09 -1.76517818E-09 -2.83354911E-09 -1.59939362E-09
  4.97518822E-04 -2.19717263E-09  1.23214359E-09  2.53241340E-09  3.02767137E-09
 -1.15130564E-08 -2.52813058E-08  2.31919050E-03  2.69895400E-04  2.63927958E-09
 -4.52443477E-09 -2.76001760E-09 -2.71330218E-09  2.51551581E-05  6.79888375E-10
  1.38512786E-09 -5.29411922E-09 -4.37977167E-09 -7.19189434E-11  8.06814698E-10
  2.68217439E-05 -1.47212676E-04 -1.46953147E-04  4.19150251E-04 -9.23957803E-04
 -5.50085768E-04 -1.56852881E-05 -1.38514629E-06  4.55805789E-01 -3.42130439E-07
 -3.08214900E-08  1.00201974E-02  6.80775854E-08  5.56623397E-09 -2.29621020E-03
 -6.58364668E-06 -7.36311797E-09 -4.88229288E-09 -1.04941256E-09 -4.14013861E-09
  1.41723715E-05  7.17873287E-10 -6.03172825E-09 -5.06861366E-10  5.32866050E-09
 -4.52397860E-04 -3.02509434E-09  5.44218405E-09  2.33394598E-09 -2.97633717E-09
 -1.83108132E-08  2.94891158E-09  1.80960250E-03 -1.60870559E-04 -1.86153469E-09
 -6.31659515E-09  1.09844018E-09  3.03234432E-09  2.83795234E-05 -1.38353511E-09
 -3.60781495E-09  5.72397847E-10 -3.34165550E-09 -5.59531942E-10 -2.61504222E-09
 -5.51046246E-10  6.95273463E-10 -2.59953759E-09  7.45813354E-09 -1.27412533E-08
 -1.06894287E-09  6.96737055E-03 -6.90968911E-01 -1.57584695E-05  1.52539509E-04
 -1.51051898E-02 -3.43862942E-07 -3.21563166E-05  3.12428151E-03  7.19884542E-08
 -2.82350766E-09 -1.51327580E-07  1.59574962E-05  1.39684687E-09 -3.70651686E-09
  2.15736926E-09  1.91211660E-07 -8.07444872E-06 -1.18768823E-09 -8.51554925E-10
 -4.53380171E-09  1.27501165E-07 -1.46371507E-05 -4.45255986E-09 -5.25362124E-10
  1.28817262E-05 -1.13773382E-03 -3.07867246E-08 -7.47510687E-09  5.18720018E-06
 -3.49564628E-04 -9.29379974E-10  2.33323098E-09  3.82836897E-09  1.14937033E-07
 -7.47696963E-06 -9.39946094E-10 -8.98710957E-10 -4.42778555E-09 -2.13468392E-09
  5.37792007E-09 -1.71475453E-08  3.28027399E-09 -6.39903100E-09  1.66103121E-08
 -1.21985781E-09 -1.23842903E-02  7.11889167E-01  1.89095731E-06 -2.70478106E-04
  1.55606693E-02  4.19348987E-08  5.52751423E-05 -3.21356325E-03 -7.77936497E-09
  7.02380815E-09 -2.99936047E-07  1.65434161E-05  1.15599015E-08 -8.06283158E-09
  5.76230895E-09  2.31570591E-08 -7.46123309E-06  6.13490757E-09  1.77332791E-09
 -8.78375728E-10  2.80421086E-07 -1.51986534E-05  6.45357083E-10 -3.50304208E-09
 -1.88391964E-05  1.16073880E-03 -1.00014975E-08  5.14470243E-09  4.43776052E-06
 -3.46685193E-04 -3.38290978E-10 -2.86765152E-09  2.60120768E-09 -9.16788558E-08
  7.37565808E-06  2.35877872E-09 -2.22914679E-09  4.74676179E-09  1.13897610E-09
  2.16193985E-09 -4.94600211E-09  7.98097877E-09 -1.50398360E-08  2.40629794E-08
  3.61185844E-09 -6.83197457E-01 -1.04537995E-02 -8.25774684E-06 -1.49359737E-02
 -2.28453783E-04 -1.78312545E-07  3.09107835E-03  4.70522341E-05  3.18157251E-08
  4.97394449E-09  1.57409171E-05  2.42980282E-07 -4.96462280E-09  5.54420332E-09
  1.01257666E-09 -8.30478658E-06 -8.84263025E-08  1.27783600E-09 -2.48172387E-09
  7.85705743E-09 -1.44211976E-05 -2.23851446E-07 -2.01716967E-09  1.89016050E-09
 -1.12910770E-03 -1.67470918E-05  7.53115608E-09 -2.54948931E-09 -3.50546837E-04
 -4.74251031E-06  3.30051239E-09 -2.63962291E-09 -1.23961141E-09 -7.51428220E-06
 -1.01890930E-07  4.81819623E-09  3.59314350E-09 -7.80024469E-10 -1.46911472E-09
  8.20496020E-09 -2.99096238E-08 -9.30675805E-09  1.07584349E-08 -1.81530130E-09
 -6.60585870E-09  7.19358138E-01  9.05418361E-03  2.51202513E-05  1.57232682E-02
  1.97979219E-04  5.52053216E-07 -3.24540089E-03 -4.10755284E-05 -1.19089728E-07
  8.73283626E-09  1.67596822E-05  2.05625008E-07 -1.15456908E-08 -1.01789826E-08
 -2.04492212E-09 -7.23861918E-06 -1.28418845E-07  6.85979766E-09 -2.92040322E-09
 -7.18410731E-09 -1.53911939E-05 -1.90561593E-07 -4.47841662E-09 -4.66141390E-09
  1.16887289E-03  1.52076543E-05  4.87968140E-08 -6.01258925E-09 -3.45566868E-04
 -4.93174743E-06  6.72670564E-10  1.26083845E-09  3.33776462E-09  7.33679769E-06
  1.07536493E-07 -2.91609231E-10  1.40221188E-09  3.50170070E-09  4.69421742E-09
 -1.84397572E-09  7.16827475E-09  1.77976515E-09 -8.03955412E-09  2.55806747E-08
  5.50914345E-09  6.43413070E-01 -3.21488472E-01  1.12392874E-08  1.40099709E-02
 -7.00011702E-03 -5.06577338E-10 -2.75009482E-03  1.37376674E-03 -2.96569527E-09
 -1.85176859E-09 -1.81656427E-05  9.09427109E-06 -3.27793047E-09 -4.99130627E-09
  2.50814491E-09 -1.83311314E-05  9.20583830E-06 -4.77329822E-10 -4.50369368E-09
  1.10916481E-09  1.71256833E-05 -8.56290502E-06  2.27422649E-09  4.35376143E-09
  7.16453339E-04 -3.57233518E-04  2.16965323E-08  6.23501922E-09 -7.80794792E-05
  3.98986779E-05  6.19851897E-10  8.92999575E-10 -3.91103626E-09 -2.91333842E-06
  1.47227145E-06 -8.77815507E-10  2.96666588E-09  7.28249898E-09 -1.12177093E-09
  4.37808239E-09 -1.75748968E-08 -1.12183202E-08  1.41101948E-08 -1.12620329E-08
 -5.30334433E-09  6.10272341E-01 -3.07722052E-01  2.01480380E-05  1.32855272E-02
 -6.69918766E-03  4.43169333E-07 -2.60036874E-03  1.31157202E-03 -9.80172127E-08
  1.94035193E-09  1.73903539E-05 -8.76569507E-06 -9.37969424E-09 -8.51078620E-10
 -1.30653904E-09  1.86930762E-05 -9.36375601E-06  6.39432975E-10 -7.28507516E-09
 -1.54757355E-10 -1.64170860E-05  8.27536635E-06 -1.73475234E-09  6.41882004E-09
  6.62156565E-04 -3.34676745E-04  4.77821864E-08 -1.47752529E-08  9.45245560E-05
 -4.67357226E-05 -2.70355926E-09 -2.89147223E-09  4.01404066E-09 -3.26097286E-06
  1.62228727E-06 -6.81216490E-09  5.01767778E-09 -3.64210587E-09  1.66894482E-10
 -2.73018943E-10  2.32334416E-09  3.22888290E-09 -9.03841754E-09  1.77922194E-08
  8.07613238E-09  3.21955886E-01  6.35248866E-01  1.80147337E-05  7.01033694E-03
  1.38314933E-02  3.93924867E-07 -1.37588671E-03 -2.71317006E-03 -8.32564350E-08
  4.87675094E-09 -9.09108804E-06 -1.79792508E-05  5.43534187E-09 -1.03914261E-09
 -6.03054025E-09 -9.21586273E-06 -1.84246429E-05 -2.08400525E-09  1.61855831E-10
  1.12964542E-08  8.57743707E-06  1.69523762E-05  2.40944835E-09  1.00084426E-09
  3.58009326E-04  7.02989948E-04  3.97080388E-08  4.28080118E-09 -3.96506263E-05
 -8.22425359E-05  1.83567825E-09 -7.56897692E-10 -1.16828664E-09 -1.46472943E-06
 -2.99711896E-06  4.75095793E-10 -7.00915887E-10  4.25949078E-09  1.27823346E-09
  8.04826700E-09 -2.83405337E-08 -4.99063087E-09  6.76445421E-09 -1.06940456E-08
 -8.58854380E-09  3.07215643E-01  6.18774802E-01  1.27787810E-05  6.68811848E-03
  1.34713723E-02  2.79544239E-07 -1.30928664E-03 -2.63873908E-03 -5.91980256E-08
  1.24771611E-08  8.74375583E-06  1.75888730E-05  3.48616838E-09 -1.14974749E-08
 -1.26494405E-08  9.37537186E-06  1.86054773E-05  4.70776659E-09 -1.84167645E-09
  3.28247927E-09 -8.25556108E-06 -1.66065084E-05 -2.59174817E-09 -8.65354098E-10
  3.33854609E-04  6.75997773E-04  3.52676866E-08 -9.90248584E-09  4.69675528E-05
  9.04222440E-05 -4.17765999E-11 -5.26801433E-10  2.69825613E-10 -1.62849748E-06
 -3.17121984E-06 -1.02748169E-08 -5.19988919E-09 -1.08673275E-08 -1.94183651E-09
  7.91396247E-02 -3.13623672E-01  4.48756660E-01  3.30963625E-01  1.03172782E-02
 -3.32777558E-03 -2.89944355E-09 -2.92155513E-09  4.14006141E-04  1.39721780E-08
  5.64550277E-09 -7.91869842E-04 -2.55826831E-08  8.20688313E-09 -9.92244945E-04
  1.50128024E-04 -9.01281155E-09  6.19584011E-09  2.16690251E-08 -1.39520032E-08
 -1.58799823E-04 -5.58722996E-09 -8.33954569E-09  1.01667390E-08 -1.36657505E-08
  4.29142282E-04  1.03453598E-09 -7.89062506E-09  1.43648672E-09 -8.46753588E-10
  5.66470451E-09 -5.37616508E-10 -7.99714988E-05 -4.82925779E-04  2.15693762E-09