HF file generated by AutoMR of MOKIT                                    
Stability UHF                                                         Gen                 
Number of atoms                            I                2
Info1-9                                    I   N=           9
           6           5           0           0           0         110
           7           1           2
Charge                                     I                0
Multiplicity                               I                1
Number of electrons                        I               48
Number of alpha electrons                  I               24
Number of beta electrons                   I               24
Number of basis functions                  I               90
Number of independent functions            I               90
Number of point charges in /Mol/           I                0
Number of translation vectors              I                0
Atomic numbers                             I   N=           2
          24          24
Nuclear charges                            R   N=           2
  2.40000000E+01  2.40000000E+01
Current cartesian coordinates              R   N=           6
  0.00000000E+00  0.00000000E+00  0.00000000E+00  0.00000000E+00  0.00000000E+00
  5.66917840E+00
Force Field                                I                0
Int Atom Types                             I   N=           2
           0           0
MM charges                                 R   N=           2
  0.00000000E+00  0.00000000E+00
Integer atomic weights                     I   N=           2
          52          52
Real atomic weights                        R   N=           2
  5.19405097E+01  5.19405097E+01
Atom fragment info                         I   N=           2
           1           2
Atom residue num                           I   N=           2
           0           0
Nuclear spins                              I   N=           2
           0           0
Nuclear ZEff                               R   N=           2
 -2.47200000E+01 -2.47200000E+01
Nuclear QMom                               R   N=           2
  0.00000000E+00  0.00000000E+00
Nuclear GFac                               R   N=           2
  0.00000000E+00  0.00000000E+00
MicOpt                                     I   N=           2
          -1          -1
Number of contracted shells                I               30
Number of primitive shells                 I               72
Pure/Cartesian d shells                    I                0
Pure/Cartesian f shells                    I                0
Highest angular momentum                   I                3
Largest degree of contraction              I                8
Shell types                                I   N=          30
           0           0           0           0           0           0
           1           1           1          -2          -2          -2
           1          -2          -3           0           0           0
           0           0           0           1           1           1
          -2          -2          -2           1          -2          -3
Number of primitives per shell             I   N=          30
           8           4           2           1           1           1
           6           3           1           4           1           1
           1           1           1           8           4           2
           1           1           1           6           3           1
           4           1           1           1           1           1
Shell to atom map                          I   N=          30
           1           1           1           1           1           1
           1           1           1           1           1           1
           1           1           1           2           2           2
           2           2           2           2           2           2
           2           2           2           2           2           2
Primitive exponents                        R   N=          72
  2.54477807E+05  3.81317971E+04  8.67529306E+03  2.45500998E+03  7.99162178E+02
  2.86900215E+02  1.11254132E+02  4.38641526E+01  2.79326692E+02  8.62747324E+01
  1.35557561E+01  5.69781128E+00  8.56365826E+00  1.39882968E+00  5.72881711E-01
  9.00961713E-02  3.41258851E-02  1.30643989E+03  3.09253114E+02  9.89962740E+01
  3.67569165E+01  1.45666571E+01  5.87399374E+00  2.28909997E+01  3.08550018E+00
  1.21323291E+00  4.49316807E-01  4.37200745E+01  1.23912427E+01  4.26394420E+00
  1.55252218E+00  5.37619295E-01  1.64931731E-01  1.20675000E-01  5.10000000E-02
  1.14700000E+00  2.54477807E+05  3.81317971E+04  8.67529306E+03  2.45500998E+03
  7.99162178E+02  2.86900215E+02  1.11254132E+02  4.38641526E+01  2.79326692E+02
  8.62747324E+01  1.35557561E+01  5.69781128E+00  8.56365826E+00  1.39882968E+00
  5.72881711E-01  9.00961713E-02  3.41258851E-02  1.30643989E+03  3.09253114E+02
  9.89962740E+01  3.67569165E+01  1.45666571E+01  5.87399374E+00  2.28909997E+01
  3.08550018E+00  1.21323291E+00  4.49316807E-01  4.37200745E+01  1.23912427E+01
  4.26394420E+00  1.55252218E+00  5.37619295E-01  1.64931731E-01  1.20675000E-01
  5.10000000E-02  1.14700000E+00
Contraction coefficients                   R   N=          72
  2.42904776E-04  1.88435236E-03  9.80095844E-03  3.98250087E-02  1.29405437E-01
  3.06290018E-01  4.34628350E-01  2.24695629E-01 -2.43633579E-02 -1.15114954E-01
  5.50922663E-01  5.36113547E-01 -3.71230177E-01  1.16811695E+00  1.00000000E+00
  1.00000000E+00  1.00000000E+00  2.82928007E-03  2.27766292E-02  1.05645619E-01
  2.99499449E-01  4.77062454E-01  2.76542344E-01 -1.94121061E-02  3.86188758E-01
  6.76239089E-01  1.00000000E+00  2.20932593E-02  1.28014388E-01  3.86529103E-01
  6.41033014E-01  1.00000000E+00  1.00000000E+00  1.00000000E+00  1.00000000E+00
  1.00000000E+00  2.42904776E-04  1.88435236E-03  9.80095844E-03  3.98250087E-02
  1.29405437E-01  3.06290018E-01  4.34628350E-01  2.24695629E-01 -2.43633579E-02
 -1.15114954E-01  5.50922663E-01  5.36113547E-01 -3.71230177E-01  1.16811695E+00
  1.00000000E+00  1.00000000E+00  1.00000000E+00  2.82928007E-03  2.27766292E-02
  1.05645619E-01  2.99499449E-01  4.77062454E-01  2.76542344E-01 -1.94121061E-02
  3.86188758E-01  6.76239089E-01  1.00000000E+00  2.20932593E-02  1.28014388E-01
  3.86529103E-01  6.41033014E-01  1.00000000E+00  1.00000000E+00  1.00000000E+00
  1.00000000E+00  1.00000000E+00
Coordinates of each shell                  R   N=          90
  0.00000000E+00  0.00000000E+00  0.00000000E+00  0.00000000E+00  0.00000000E+00
  0.00000000E+00  0.00000000E+00  0.00000000E+00  0.00000000E+00  0.00000000E+00
  0.00000000E+00  0.00000000E+00  0.00000000E+00  0.00000000E+00  0.00000000E+00
  0.00000000E+00  0.00000000E+00  0.00000000E+00  0.00000000E+00  0.00000000E+00
  0.00000000E+00  0.00000000E+00  0.00000000E+00  0.00000000E+00  0.00000000E+00
  0.00000000E+00  0.00000000E+00  0.00000000E+00  0.00000000E+00  0.00000000E+00
  0.00000000E+00  0.00000000E+00  0.00000000E+00  0.00000000E+00  0.00000000E+00
  0.00000000E+00  0.00000000E+00  0.00000000E+00  0.00000000E+00  0.00000000E+00
  0.00000000E+00  0.00000000E+00  0.00000000E+00  0.00000000E+00  0.00000000E+00
  0.00000000E+00  0.00000000E+00  5.66917840E+00  0.00000000E+00  0.00000000E+00
  5.66917840E+00  0.00000000E+00  0.00000000E+00  5.66917840E+00  0.00000000E+00
  0.00000000E+00  5.66917840E+00  0.00000000E+00  0.00000000E+00  5.66917840E+00
  0.00000000E+00  0.00000000E+00  5.66917840E+00  0.00000000E+00  0.00000000E+00
  5.66917840E+00  0.00000000E+00  0.00000000E+00  5.66917840E+00  0.00000000E+00
  0.00000000E+00  5.66917840E+00  0.00000000E+00  0.00000000E+00  5.66917840E+00
  0.00000000E+00  0.00000000E+00  5.66917840E+00  0.00000000E+00  0.00000000E+00
  5.66917840E+00  0.00000000E+00  0.00000000E+00  5.66917840E+00  0.00000000E+00
  0.00000000E+00  5.66917840E+00  0.00000000E+00  0.00000000E+00  5.66917840E+00
Constraint Structure                       R   N=           6
  0.00000000E+00  0.00000000E+00  0.00000000E+00  0.00000000E+00  0.00000000E+00
  5.66917840E+00
Num ILSW                                   I              100
ILSW                                       I   N=         100
           1           0           0           0           2           1
           0           0           0           0           0          -1
           0           0           0           0           0           0
           0           0           0           0           0           0
           1           1           0           0           0           0
           0           0      100000           0          -1           0
           0           0           0           0           0           0
           0           0           0           1           0           0
           0           0           1           0           0           0
           0           0           4          40           0           0
           0           0           0           0           0           0
           0           0           0           0           0           0
           0           0           0           0           0           0
           0           0           0           0           0           0
           0           0           0           0           0           0
           0           0           0           0           0           0
           0           0           0           0
Num RLSW                                   I               40
RLSW                                       R   N=          40
  1.00000000E+00  1.00000000E+00  1.00000000E+00  1.00000000E+00  1.00000000E+00
  0.00000000E+00  0.00000000E+00  1.00000000E+00  0.00000000E+00  0.00000000E+00
  0.00000000E+00  0.00000000E+00  1.00000000E+00  0.00000000E+00  0.00000000E+00
  0.00000000E+00  0.00000000E+00  1.00000000E+00  0.00000000E+00  0.00000000E+00
  0.00000000E+00  0.00000000E+00  1.00000000E+00  0.00000000E+00  0.00000000E+00
  0.00000000E+00  0.00000000E+00  1.00000000E+00  0.00000000E+00  0.00000000E+00
  0.00000000E+00  0.00000000E+00  1.00000000E+00  0.00000000E+00  0.00000000E+00
  0.00000000E+00  0.00000000E+00  0.00000000E+00  1.00000000E+00  1.00000000E+00
ECP-MxAtEC                                 I           250000
ECP-MaxLECP                                I               10
ECP-MaxAtL                                 I          2250000
ECP-MxTECP                                 I         11250000
ECP-LenNCZ                                 I                0
ECP-KFirst                                 I   N=          20
           0           0           0           0           0           0
           0           0           0           0           0           0
           0           0           0           0           0           0
           0           0
ECP-KLast                                  I   N=          20
           0           0           0           0           0           0
           0           0           0           0           0           0
           0           0           0           0           0           0
           0           0
ECP-LMax                                   I   N=           2
           0           0
ECP-LPSkip                                 I   N=           2
           1           1
ECP-RNFroz                                 R   N=           2
  0.00000000E+00  0.00000000E+00
ECP-NLP                                    I                0
ECP-CLP1                                   R      0.000000000000000E+00
ECP-CLP2                                   R      0.000000000000000E+00
ECP-ZLP                                    R      0.000000000000000E+00
MxBond                                     I                1
NBond                                      I   N=           2
           0           0
IBond                                      I   N=           2
           0           0
RBond                                      R   N=           2
  0.00000000E+00  0.00000000E+00
Virial Ratio                               R      2.000014116054456E+00
SCF Energy                                 R     -2.086669893077687E+03
Total Energy                               R     -2.086669893077687E+03
S**2                                       R      5.674569458496144E+00
S**2 after annihilation                    R      1.770799823535651E+01
RMS Density                                R      1.813224320738972E-09
External E-field                           R   N=          35
  0.00000000E+00  0.00000000E+00  0.00000000E+00  0.00000000E+00  0.00000000E+00
  0.00000000E+00  0.00000000E+00  0.00000000E+00  0.00000000E+00  0.00000000E+00
  0.00000000E+00  0.00000000E+00  0.00000000E+00  0.00000000E+00  0.00000000E+00
  0.00000000E+00  0.00000000E+00  0.00000000E+00  0.00000000E+00  0.00000000E+00
  0.00000000E+00  0.00000000E+00  0.00000000E+00  0.00000000E+00  0.00000000E+00
  0.00000000E+00  0.00000000E+00  0.00000000E+00  0.00000000E+00  0.00000000E+00
  0.00000000E+00  0.00000000E+00  0.00000000E+00  0.00000000E+00  0.00000000E+00
IOpCl                                      I                1
IROHF                                      I                0
Alpha Orbital Energies                     R   N=          90
 -2.20386208E+02 -2.20384304E+02 -2.62602382E+01 -2.61594614E+01 -2.21890576E+01
 -2.21890576E+01 -2.21888938E+01 -2.20911795E+01 -2.20906601E+01 -2.20906601E+01
 -3.45779876E+00 -3.11222977E+00 -2.26049918E+00 -2.26049918E+00 -2.26032073E+00
 -1.84165400E+00 -1.83995533E+00 -1.83995533E+00 -3.71460807E-01 -3.71460807E-01
 -3.71085365E-01 -3.71085365E-01 -3.70903561E-01 -2.23564529E-01  2.58324783E-02
  9.61709063E-02  9.61709063E-02  1.02945554E-01  1.36889047E-01  1.46570245E-01
  1.46570245E-01  1.46960486E-01  1.46960486E-01  1.71896870E-01  1.90405586E-01
  1.90405586E-01  2.13280760E-01  2.13280760E-01  2.21276084E-01  2.88063539E-01
  3.42838490E-01  3.42838490E-01  3.85557625E-01  3.93832267E-01  3.93832267E-01
  3.99280374E-01  3.99280374E-01  5.10116716E-01  6.55715973E-01  6.55715973E-01
  6.62579767E-01  6.62579767E-01  7.69260158E-01  8.39414461E-01  8.39414461E-01
  8.56621829E-01  8.56621829E-01  9.40950791E-01  1.66757184E+00  1.66757184E+00
  1.78531526E+00  1.82951315E+00  1.82951315E+00  1.90360310E+00  2.35243015E+00
  2.48934205E+00  2.48934205E+00  2.49855462E+00  2.49855462E+00  2.52349076E+00
  2.62632404E+00  2.67728705E+00  2.67728705E+00  2.68198811E+00  2.68198811E+00
  2.76175497E+00  3.33470333E+00  3.33470333E+00  3.33483534E+00  3.33483534E+00
  3.34072689E+00  3.34072689E+00  3.37200899E+00  3.56891117E+00  3.56891117E+00
  3.56930755E+00  3.56930755E+00  3.57274013E+00  3.57274013E+00  3.60515318E+00
Beta Orbital Energies                      R   N=          90
 -2.20386208E+02 -2.20384304E+02 -2.62602382E+01 -2.61594614E+01 -2.21890576E+01
 -2.21890576E+01 -2.21888938E+01 -2.20911795E+01 -2.20906601E+01 -2.20906601E+01
 -3.45779876E+00 -3.11222977E+00 -2.26049918E+00 -2.26049918E+00 -2.26032073E+00
 -1.84165400E+00 -1.83995533E+00 -1.83995533E+00 -3.71460807E-01 -3.71460807E-01
 -3.71085365E-01 -3.71085365E-01 -3.70903561E-01 -2.23564529E-01  2.58324783E-02
  9.61709063E-02  9.61709063E-02  1.02945554E-01  1.36889047E-01  1.46570245E-01
  1.46570245E-01  1.46960486E-01  1.46960486E-01  1.71896870E-01  1.90405586E-01
  1.90405586E-01  2.13280760E-01  2.13280760E-01  2.21276084E-01  2.88063539E-01
  3.42838490E-01  3.42838490E-01  3.85557625E-01  3.93832267E-01  3.93832267E-01
  3.99280374E-01  3.99280374E-01  5.10116716E-01  6.55715973E-01  6.55715973E-01
  6.62579767E-01  6.62579767E-01  7.69260158E-01  8.39414461E-01  8.39414461E-01
  8.56621829E-01  8.56621829E-01  9.40950791E-01  1.66757184E+00  1.66757184E+00
  1.78531526E+00  1.82951315E+00  1.82951315E+00  1.90360310E+00  2.35243015E+00
  2.48934205E+00  2.48934205E+00  2.49855462E+00  2.49855462E+00  2.52349076E+00
  2.62632404E+00  2.67728705E+00  2.67728705E+00  2.68198811E+00  2.68198811E+00
  2.76175497E+00  3.33470333E+00  3.33470333E+00  3.33483534E+00  3.33483534E+00
  3.34072689E+00  3.34072689E+00  3.37200899E+00  3.56891117E+00  3.56891117E+00
  3.56930755E+00  3.56930755E+00  3.57274013E+00  3.57274013E+00  3.60515318E+00
Alpha MO coefficients                      R   N=        8100
  9.97812792E-01  6.96698831E-03 -2.29984872E-03  1.53889394E-03 -5.95388619E-04
  2.13146531E-04  1.09997745E-16  1.24141944E-16  1.56500061E-06 -9.75866577E-18
 -1.67236780E-16 -1.55962653E-05  2.49173262E-17  2.74768884E-16  5.33601973E-05
 -7.41982682E-06 -3.41792937E-17  2.44990240E-17 -4.72917473E-18 -4.00643674E-17
  3.10877301E-05  1.34955339E-17 -3.95105215E-17  2.15909815E-17  4.72969111E-17
 -1.06003082E-04  8.23327654E-17  5.06650764E-17 -4.10225051E-17 -2.09057151E-17
 -4.27300921E-17 -2.61134222E-16 -1.63166677E-04  3.57818807E-06 -1.91549672E-17
 -6.73402957E-17  4.50357508E-17  2.79699275E-17 -4.37423092E-06  6.98287697E-16
 -3.95217685E-16 -2.52707068E-16 -2.64990276E-16 -1.24430496E-16 -1.18690737E-16
 -6.38026629E-04  1.89163671E-06  3.97969119E-05 -8.57671863E-05  1.38529915E-04
 -1.06552246E-05  1.43797079E-16  2.00120797E-16  2.77102982E-06 -2.08457533E-17
 -3.83339470E-17 -1.47379911E-05  5.81613361E-17  3.53248792E-17  5.50514447E-05
  1.92747312E-06  2.84411511E-16  7.94535296E-17 -1.05890986E-16 -3.99345397E-17
 -1.48010721E-05 -5.27102751E-16 -3.25270322E-16  9.98865494E-17  4.64781208E-17
  9.39462030E-05  4.31913344E-16  4.63771867E-16 -1.70639629E-17  1.52306469E-17
 -7.55050779E-17  4.82592462E-17 -1.87746790E-04  3.69717187E-05 -2.09921612E-16
 -4.31605122E-16 -3.58394138E-17 -2.35763808E-17 -6.20681449E-06 -8.08730560E-17
  1.08686487E-16 -3.21209985E-17 -1.61733041E-17 -3.33329222E-16 -8.09769816E-16
  6.41690377E-04  1.08365337E-05  3.69418882E-05 -8.40383710E-05  1.38184067E-04
 -1.04104722E-05  3.30713110E-17 -2.98790006E-17 -2.77548960E-06  1.55701793E-17
  1.16743428E-16  1.47601666E-05 -9.13181044E-18 -1.79099287E-16 -5.51358117E-05
  1.93838267E-06 -5.23405137E-18 -3.39934981E-17  2.61576745E-18  5.94506256E-17
 -1.47943867E-05  4.10388085E-17  8.46123484E-18 -1.84200560E-17 -1.55090131E-17
  9.40784471E-05 -7.57610096E-17  5.32131286E-17  5.21505250E-17 -8.75682420E-17
 -1.61849291E-17  1.34194102E-16  1.88067766E-04  3.70766006E-05 -2.29398049E-17
  3.38433092E-17 -8.18483305E-17  6.90143989E-17  6.22010180E-06  6.74849463E-17
 -5.93213135E-16  1.54301194E-16 -2.05255023E-16  4.62241772E-17 -2.75616420E-16
  9.97818535E-01  6.94708485E-03 -2.30700649E-03  1.54240274E-03 -5.96811789E-04
  2.13708410E-04  1.46820681E-16 -6.06636520E-17 -1.54554750E-06  6.21396252E-17
  3.79019819E-17  1.56317691E-05 -1.11453866E-16 -2.51036806E-17 -5.34412158E-05
 -7.43038973E-06 -2.83168042E-16  3.68110437E-18  6.32113379E-17 -5.00655048E-18
  3.11428938E-05  3.32765470E-16 -6.42684450E-17 -5.25483857E-17 -4.79809234E-17
 -1.06148411E-04 -2.09231979E-16  2.96144046E-18 -9.53837795E-18  1.22588934E-16
  1.10379342E-16 -6.17301209E-17  1.63369727E-04  3.63147174E-06  9.15469435E-17
  1.07500671E-16  4.97220747E-17 -1.13398920E-16  4.43915578E-06  2.54397816E-16
 -2.54405713E-16 -1.24899296E-16  2.85636438E-16 -1.70819151E-16 -7.24050420E-16
 -3.11643977E-01  1.03616032E+00  3.60237536E-02 -9.72837112E-03  3.12818663E-03
 -1.12280986E-03 -3.25177781E-16 -9.26373641E-17 -1.55156841E-04 -2.21659597E-17
  7.33630489E-17  5.36311615E-05  2.78539142E-17 -1.75713608E-16 -2.46917770E-04
  3.28809440E-05  5.22640337E-17 -1.19016432E-17 -4.32587734E-16 -1.57396216E-17
 -1.47357334E-04 -1.02639237E-16  3.58847405E-17  2.01635150E-16 -8.79773221E-17
  5.00300163E-04  1.07147694E-16 -7.26193671E-17 -1.68741692E-17  2.64650103E-16
 -2.61140380E-17  2.88290777E-16  7.66989207E-04 -1.65498831E-05 -2.95245878E-17
  2.79222772E-16 -1.35419990E-16 -2.49587124E-16  1.51799610E-05  9.89340342E-16
  4.00051172E-16 -7.45283559E-16 -2.80473462E-16  2.79408012E-16  3.49188905E-16
 -2.07957331E-07 -5.50449139E-05 -1.70068615E-04  3.87148157E-04 -6.58273219E-04
  6.28482969E-05 -1.29384181E-16 -2.75814798E-16 -1.14108726E-05 -3.07182248E-17
 -1.62628289E-16  6.29821654E-05  5.63016689E-17  3.13608735E-16 -2.46881235E-04
 -4.99228770E-06 -7.86585372E-17  7.98741071E-18 -1.78269490E-16  7.03388480E-19
  5.55036863E-05  3.32785239E-17 -3.51667028E-17  3.23830062E-16 -1.52603830E-17
 -4.26402410E-04  7.40046955E-17  3.37315810E-17 -5.13976108E-16 -1.58045682E-16
 -6.00768417E-17 -3.81349211E-16  8.89627261E-04 -1.91912712E-04 -4.55971651E-17
  2.02356787E-16  3.93660977E-16  2.21385954E-16  2.70568603E-05 -3.23761695E-16
  4.23648909E-16 -3.79084133E-16  7.88338717E-16  6.59796218E-16 -4.93772101E-16
 -1.34167461E-05  4.49196041E-06 -1.20294214E-04  2.79563418E-04 -4.79432319E-04
  4.78388277E-05 -2.46686091E-16 -4.17619784E-16  7.58068763E-06 -3.05039216E-17
  1.84261484E-16 -4.42282044E-05  5.53968302E-17 -3.80101795E-16  1.75946368E-04
 -3.37518244E-06  3.31094560E-17 -1.02175105E-16 -4.19170174E-17  5.57336795E-18
  3.63906935E-05 -4.36102056E-17  1.57092160E-16  2.76048041E-17 -1.61428780E-16
 -3.05367749E-04 -1.51793168E-18 -1.16451152E-16 -5.61774019E-18  3.01407549E-16
 -7.03524578E-17  4.56990528E-16 -6.44136217E-04 -1.41139660E-04  4.44039579E-18
  4.09468205E-16  8.64195006E-17 -1.53152969E-16 -1.99012607E-05 -6.52491415E-16
  6.62925405E-16 -1.50899269E-15  5.45529408E-16 -2.85317259E-16  9.20345127E-17
 -3.12245453E-01  1.03774064E+00  3.05599512E-02 -7.99329093E-03  2.29563175E-03
 -8.26520232E-04  4.42825495E-17  4.50302935E-16  1.45932370E-04 -1.93813176E-17
 -3.60217402E-16 -3.60135770E-05  2.07163134E-17  6.03222701E-16  1.78231208E-04
  3.82116341E-05 -1.02454268E-17  1.23944854E-16 -4.74740750E-16  1.77950782E-16
 -1.12000817E-04  6.66979620E-17 -2.33292034E-16  1.78209515E-17 -3.06016011E-16
  3.63603788E-04 -6.56087191E-17  2.21918642E-16  2.32834437E-16  1.82561374E-16
  1.56198514E-17 -5.86639581E-16 -5.53292775E-04 -1.25791492E-05 -1.12090012E-17
  1.88935108E-16 -1.93069213E-16 -3.90923882E-17 -1.34747838E-05 -1.69896580E-16
 -1.34297491E-16 -4.12609912E-16  1.13739289E-15 -1.07631046E-15 -9.07388851E-16
 -4.89236296E-16  2.63447344E-15  2.67798566E-15 -6.16156047E-15  7.14105838E-15
  7.07577117E-15  1.31049982E-01  9.82201146E-01  1.19101192E-11  3.32273719E-03
  2.49034469E-02  3.03274604E-13 -6.70957112E-04 -5.02872898E-03 -6.56373456E-14
 -1.31239754E-16 -1.26575482E-06 -9.48665394E-06 -8.29671477E-16 -4.31862346E-16
 -1.77475341E-15 -2.08839573E-06 -1.56522317E-05  1.14481783E-15  5.59417627E-16
  7.10759873E-15  4.84193943E-06  3.62896535E-05 -6.58743502E-16 -1.63320408E-16
  2.27569165E-04  1.70559882E-03  3.29731772E-14  4.08127299E-15  2.97297558E-05
  2.22820330E-04  3.66696241E-16 -3.78261635E-16  2.13825146E-16  4.84327631E-07
  3.62996733E-06  1.89048675E-16  3.34483636E-16  2.99743214E-16 -4.84335117E-16
 -1.65087803E-16 -8.86852147E-17 -1.73209960E-15  5.26083147E-15 -1.42381836E-14
 -3.99579190E-15  3.37163666E-07  2.52699573E-06  2.59277165E-15 -7.32977458E-06
 -5.49356274E-05  9.12494709E-16  2.08191279E-05  1.56036429E-04 -3.25808812E-15
  8.24615516E-17 -9.01486467E-07 -6.75651401E-06 -2.50918438E-16  7.61240382E-17
 -3.74475039E-16  2.27590637E-06  1.70575975E-05  7.92399855E-16 -2.17266408E-16
 -5.16790913E-15 -8.01483504E-07 -6.00700590E-06  4.16644412E-16  1.35898155E-16
 -4.47692394E-05 -3.35539139E-04  1.51823473E-14 -8.70522350E-16  5.26611247E-05
  3.94687707E-04 -4.24816851E-16  3.14885459E-16  5.69230150E-16 -1.28931845E-06
 -9.66326007E-06 -7.48389211E-16 -1.77891303E-16  1.24881304E-16 -2.23700317E-16
  1.58709102E-15 -6.72396856E-15 -2.83996158E-15  9.75056811E-15 -1.33826066E-14
 -2.64436846E-14  9.82201146E-01 -1.31049982E-01 -3.79193185E-11  2.49034469E-02
 -3.32273719E-03 -9.65292532E-13 -5.02872898E-03  6.70957112E-04  2.07188442E-13
 -1.57957658E-15 -9.48665394E-06  1.26575481E-06 -6.13579378E-16 -3.42506407E-16
  6.69537623E-15 -1.56522317E-05  2.08839574E-06  9.72788449E-16  3.96862209E-16
 -1.86887520E-14  3.62896535E-05 -4.84193943E-06 -3.45581490E-16 -2.24862441E-16
  1.70559882E-03 -2.27569165E-04 -9.94817034E-14 -1.29166944E-14  2.22820330E-04
 -2.97297558E-05  2.58962014E-17  4.41565138E-16 -1.00334100E-15  3.62996733E-06
 -4.84327631E-07  1.82035224E-16 -3.09155778E-16 -3.36217748E-17  2.60698430E-16
 -4.37359272E-17  9.84462793E-16  1.58582864E-15 -9.24931306E-15  3.64194341E-14
  1.48784698E-14  2.52699611E-06 -3.37164299E-07 -9.53670939E-15 -5.49356273E-05
  7.32977457E-06 -1.13794902E-15  1.56036429E-04 -2.08191279E-05  6.81969972E-15
 -3.88923439E-16 -6.75651401E-06  9.01486467E-07 -1.79735768E-16  5.04301279E-16
  1.01495605E-15  1.70575975E-05 -2.27590637E-06  3.55418688E-16 -6.10115284E-16
  1.29024176E-14 -6.00700590E-06  8.01483503E-07 -9.57702557E-16  5.12132277E-16
 -3.35539139E-04  4.47692394E-05 -4.26515287E-14  1.92154586E-15  3.94687707E-04
 -5.26611247E-05  5.86497218E-16 -5.44916211E-16 -1.30513118E-15 -9.66326007E-06
  1.28931845E-06 -1.15418597E-16 -1.36232160E-16  3.41742689E-16  4.76494668E-16
 -3.97864755E-05  1.89964065E-04  1.49655207E-04 -3.61647885E-04  4.04411623E-04
  7.14715840E-04  3.60115032E-11 -1.68206098E-11  9.90881572E-01  9.13089671E-13
 -4.26628165E-13  2.52508116E-02 -1.84373484E-13  8.63390988E-14 -5.48034872E-03
  2.06431971E-05 -4.73403094E-16  1.06210272E-16  4.12359301E-17 -1.78107971E-17
 -1.64595409E-04 -2.59244772E-16  4.58481838E-16 -9.34346183E-17  1.51332715E-17
  5.35623825E-04  9.32902146E-16 -9.05531185E-16  6.61896092E-17 -2.61886700E-20
  6.24536704E-14 -2.94139012E-14  2.72025250E-03  3.62078615E-04  8.34142111E-15
 -3.79296364E-15  1.52272843E-17 -1.77980401E-17  1.89246652E-05 -2.60491192E-16
 -4.07049738E-16  3.98513868E-16  7.12368802E-16 -5.60659517E-16  3.67342619E-16
 -7.71876178E-06 -2.89317450E-05 -1.62528014E-04  4.11342785E-04 -1.08967031E-03
 -3.79371170E-04  3.88934353E-15  1.05396174E-14 -7.06097995E-06 -1.88499171E-15
  1.23404304E-15  4.78262041E-05  5.57092465E-15 -2.92939511E-15 -2.23108523E-04
  2.00454446E-05 -3.46663206E-16  1.99583179E-16 -6.57020784E-17  9.96295149E-18
 -3.61165154E-05  8.55945486E-16 -2.08703763E-16  3.66640019E-17 -5.80174546E-17
 -3.86318995E-04 -4.57985746E-16 -7.07150044E-17  7.98577381E-18  2.92969307E-17
 -1.21909152E-14  6.01049823E-15  1.20899190E-03 -4.09944893E-05  1.45414018E-14
 -6.76355223E-15 -5.69394624E-17  2.44150324E-18  3.05290980E-05 -4.07518447E-16
  2.14442641E-16  3.99031944E-16  4.24415703E-16 -3.76360116E-16  2.11096809E-16
  3.83900974E-06  1.55898457E-05  8.30743841E-05 -2.17983743E-04  6.03587554E-04
  2.14940671E-04  9.10116121E-15 -3.83603583E-15 -5.63843379E-06  2.32089917E-16
 -4.37621758E-16  2.18257095E-05  8.55865645E-18  8.48085513E-16 -1.13361039E-04
 -1.33972407E-05 -1.26413862E-19 -1.07301849E-17  5.35183325E-17 -4.69562002E-17
  3.00178031E-05  1.09973235E-17  4.05874123E-17 -7.22965975E-17 -7.95244673E-17
  1.94450404E-04 -5.69134354E-17 -1.09558861E-16  1.79180974E-17  2.59583801E-16
 -2.25872142E-16 -1.50329302E-15  6.59710409E-04  2.46602884E-05 -2.90468064E-16
 -1.47061273E-15  2.80049399E-17 -1.75341273E-16  1.69148542E-05  5.07051983E-17
  5.14651146E-16 -2.54196926E-16 -4.08254776E-16 -3.15817322E-16 -3.03810078E-16
  4.13423428E-05 -1.69626787E-04 -7.18285805E-05  1.89938189E-04 -2.02967692E-04
 -4.10068334E-04  1.74791643E-12  5.66401856E-12  9.93437325E-01  3.19502176E-14
  1.04072377E-13  1.82821022E-02 -6.25094294E-15 -2.12173983E-14 -3.85750161E-03
 -1.13586037E-05 -1.01696465E-16  3.14616568E-17  2.30041032E-16  5.55609504E-18
  8.90877549E-05  1.35090322E-16  5.51995183E-17 -3.97824791E-16 -8.89060860E-17
 -2.84894589E-04 -5.30541385E-17 -1.30199319E-16  2.30301502E-16  5.61911437E-17
  1.64064791E-15  6.13412444E-15  1.54056134E-03 -2.09815662E-04 -1.83795884E-16
 -9.90742071E-16 -9.08381934E-17  9.37792827E-18  1.37675708E-05  2.60894634E-16
  4.84268807E-16 -1.36626353E-15 -1.08283057E-15  1.23708118E-15  2.02430066E-16
 -1.46823221E-16 -4.52224267E-17 -1.15555883E-15  3.14825696E-15 -7.09462115E-15
  1.49108462E-16  8.17684530E-06  1.23086713E-05 -1.08599375E-14 -1.71068747E-05
 -2.57511170E-05 -2.00053350E-16  4.99251387E-05  7.51527154E-05  2.08649929E-16
  7.26934597E-16  2.58050782E-06  3.88445932E-06 -1.52800656E-16 -2.94776685E-16
 -5.54551987E-16 -6.46564446E-06 -9.73278695E-06  4.35709978E-16  3.80230670E-16
 -1.68748172E-15  3.03967678E-06  4.57565006E-06 -1.62022441E-16 -2.40782212E-16
 -1.08350963E-04 -1.63101581E-04 -4.21460092E-15  2.00434200E-16 -1.27279432E-04
 -1.91594760E-04 -4.91769540E-17  2.28777137E-16 -9.01871821E-17 -3.20958267E-06
 -4.83141077E-06  2.18371674E-16 -1.13311704E-16  1.56839130E-16 -3.12690011E-17
 -2.33439314E-16  7.03236921E-16 -7.55717270E-16 -1.75119103E-16  1.65018254E-15
  2.11138629E-15  5.49720430E-01  8.27498614E-01 -5.68475622E-12  1.00760788E-02
  1.51676029E-02 -1.05204306E-13 -2.01251791E-03 -3.02945950E-03  2.30949114E-14
  1.54030250E-16  7.64741620E-06  1.15117175E-05  6.33013915E-16  4.73213563E-16
 -7.04346964E-16  2.57403083E-06  3.87470945E-06 -3.90100868E-16 -2.57755004E-16
  1.81162047E-15 -1.03513544E-05 -1.55819776E-05 -4.60491367E-16  2.44008678E-16
  5.51544769E-04  8.30244805E-04 -1.01669977E-14  2.75041047E-15 -7.19918995E-05
 -1.08369989E-04  2.27591505E-16 -2.62639549E-16 -8.56107246E-17  1.03625295E-06
  1.55987995E-06  1.80180542E-16 -1.94418204E-17 -4.97037793E-17  3.22455100E-17
 -3.27098136E-17  1.85297937E-17 -1.00264905E-15  8.32078447E-16 -6.57697649E-16
  2.50534856E-15  1.23086707E-05 -8.17684490E-06  2.82837773E-15 -2.57511170E-05
  1.71068747E-05 -3.32269568E-16  7.51527154E-05 -4.99251387E-05 -2.16829101E-16
 -1.74836970E-16  3.88445932E-06 -2.58050782E-06  6.64907429E-17  1.90431455E-16
 -7.81087999E-17 -9.73278695E-06  6.46564446E-06 -3.17493553E-16 -4.33985659E-16
  5.37854165E-16  4.57565006E-06 -3.03967678E-06  2.32049037E-16  4.61431196E-16