#INFO: **** input file is /share/home/srwang/automr_inputlibrary/suhf_vs_gvb/Cr2_30/suhf.py ****
from pyphf import suscf, guess
from pyscf import lib

lib.num_threads(8)
xyz = '''Cr 0.0 0.0 0.0; Cr 0.0 0.0 3.0'''

mf1 = guess.from_frag(xyz, 'def2-tzvp', [[0],[1]], [0,0], [6,-6], cycle=50)
mf1 = guess.check_stab(mf1)
mf2 = suscf.SUHF(mf1)
mf2.max_cycle = 100
mf2.level_shift = 0.5
mf2.tofch = True
mf2.oldfch = 'Cr2_30_uhf.fch'
mf2.kernel()
#INFO: ******************** input file end ********************


System: uname_result(system='Linux', node='xc02n12', release='3.10.0-1127.el7.x86_64', version='#1 SMP Tue Feb 18 16:39:12 EST 2020', machine='x86_64', processor='x86_64')  Threads 8
Python 3.7.4 (default, Aug 13 2019, 20:35:49) 
[GCC 7.3.0]
numpy 1.17.2  scipy 1.4.1
Date: Mon Jul  5 14:40:20 2021
PySCF version 1.7.6a1
PySCF path  /share/home/srwang/pyscf/pyscf
GIT HEAD      ref: refs/heads/master
GIT master branch  80f71dfe77ac5f9caae26788acf76446987635bd

[CONFIG] conf_file /share/home/srwang/.pyscf_conf.py
[INPUT] verbose = 4
[INPUT] num. atoms = 2
[INPUT] num. electrons = 48
[INPUT] charge = 0
[INPUT] spin (= nelec alpha-beta = 2S) = 0
[INPUT] symmetry False subgroup None
[INPUT] Mole.unit = angstrom
[INPUT]  1 Cr     0.000000000000   0.000000000000   0.000000000000 AA    0.000000000000   0.000000000000   0.000000000000 Bohr
[INPUT]  2 Cr     0.000000000000   0.000000000000   3.000000000000 AA    0.000000000000   0.000000000000   5.669178373695 Bohr

nuclear repulsion = 101.60202449664
number of shells = 30
number of NR pGTOs = 184
number of NR cGTOs = 90
basis = def2-tzvp
ecp = {}
CPU time:         1.05
**** generating fragment guess ****
fragments: [('Cr', [0.0, 0.0, 0.0])] [('Cr', [0.0, 0.0, 3.0])]
converged SCF energy = -1043.33452131755  <S^2> = 12.000047  2S+1 = 7.0000135
converged SCF energy = -1043.33452131755  <S^2> = 12.000047  2S+1 = 7.0000135
       na   nb
atom1  15    9
atom2   9   15


******** <class 'pyscf.scf.uhf.UHF'> ********
method = UHF
initial guess = minao
damping factor = 0
level_shift factor = 0
DIIS = <class 'pyscf.scf.diis.CDIIS'>
diis_start_cycle = 1
diis_space = 8
SCF conv_tol = 1e-09
SCF conv_tol_grad = None
SCF max_cycles = 50
direct_scf = True
direct_scf_tol = 1e-13
chkfile to save SCF result = /share/home/srwang/automr_inputlibrary/suhf_vs_gvb/Cr2_30/tmp6y1j866q
max_memory 4000 MB (current use 134 MB)
number electrons alpha = 24  beta = 24
Set gradient conv threshold to 3.16228e-05
init E= -2086.7195196352
  alpha nocc = 24  HOMO = -0.228205401983021  LUMO = 0.0250614188826877
  beta  nocc = 24  HOMO = -0.228205401983376  LUMO = 0.0250614188829144
cycle= 1 E= -2086.66927186724  delta_E= 0.0502  |g|= 0.0194  |ddm|= 0.173
  alpha nocc = 24  HOMO = -0.226996405346827  LUMO = 0.0256850011223235
  beta  nocc = 24  HOMO = -0.226996405347074  LUMO = 0.0256850011225596
cycle= 2 E= -2086.66969033405  delta_E= -0.000418  |g|= 0.00811  |ddm|= 0.0378
  alpha nocc = 24  HOMO = -0.225206017691174  LUMO = 0.0261326734649222
  beta  nocc = 24  HOMO = -0.225206017691274  LUMO = 0.0261326734650711
cycle= 3 E= -2086.66981800858  delta_E= -0.000128  |g|= 0.00654  |ddm|= 0.0217
  alpha nocc = 24  HOMO = -0.224551046939891  LUMO = 0.026060506891407
  beta  nocc = 24  HOMO = -0.224551046939905  LUMO = 0.0260605068915078
cycle= 4 E= -2086.66986896973  delta_E= -5.1e-05  |g|= 0.00224  |ddm|= 0.0145
  alpha nocc = 24  HOMO = -0.223777868529279  LUMO = 0.0259842504686889
  beta  nocc = 24  HOMO = -0.223777868529115  LUMO = 0.0259842504687392
cycle= 5 E= -2086.66988876367  delta_E= -1.98e-05  |g|= 0.000924  |ddm|= 0.0123
  alpha nocc = 24  HOMO = -0.223660169675254  LUMO = 0.0258622589816167
  beta  nocc = 24  HOMO = -0.223660169675027  LUMO = 0.0258622589816307
cycle= 6 E= -2086.66989218773  delta_E= -3.42e-06  |g|= 0.000431  |ddm|= 0.00477
  alpha nocc = 24  HOMO = -0.223549619195817  LUMO = 0.0258203223230846
  beta  nocc = 24  HOMO = -0.223549619195558  LUMO = 0.0258203223230736
cycle= 7 E= -2086.66989303743  delta_E= -8.5e-07  |g|= 0.000104  |ddm|= 0.00328
  alpha nocc = 24  HOMO = -0.223556993671081  LUMO = 0.0258255214852602
  beta  nocc = 24  HOMO = -0.223556993670797  LUMO = 0.0258255214852695
cycle= 8 E= -2086.66989307628  delta_E= -3.89e-08  |g|= 2.68e-05  |ddm|= 0.000482
  alpha nocc = 24  HOMO = -0.223563086857732  LUMO = 0.0258306793628314
  beta  nocc = 24  HOMO = -0.223563086857448  LUMO = 0.0258306793628174
cycle= 9 E= -2086.66989307868  delta_E= -2.4e-09  |g|= 7.07e-06  |ddm|= 0.000184
  alpha nocc = 24  HOMO = -0.223564196151121  LUMO = 0.0258322273189317
  beta  nocc = 24  HOMO = -0.223564196150834  LUMO = 0.0258322273189199
cycle= 10 E= -2086.66989307886  delta_E= -1.76e-10  |g|= 2.55e-06  |ddm|= 5.46e-05
  alpha nocc = 24  HOMO = -0.22356425207845  LUMO = 0.0258323459449367
  beta  nocc = 24  HOMO = -0.223564252078177  LUMO = 0.0258323459449307
Extra cycle  E= -2086.66989307887  delta_E= -1.5e-11  |g|= 1.73e-06  |ddm|= 5.48e-06
converged SCF energy = -2086.66989307887  <S^2> = 5.6745645  2S+1 = 4.8680856
time for guess: 0.735
**** checking UHF/UKS internal stability ...
tol 0.0001  toloose 0.01
max_cycle 50  max_space 12  max_memory 2000  incore True
davidson 0 1  |r|= 2.61  e= [1.41405761]  max|de|= 1.41  lindep= 0.992
davidson 1 2  |r|= 0.491  e= [1.03538985]  max|de|= -0.379  lindep= 0.991
davidson 2 3  |r|= 0.159  e= [0.7047374]  max|de|= -0.331  lindep= 0.999
davidson 3 4  |r|= 0.415  e= [0.49285354]  max|de|= -0.212  lindep= 0.992
davidson 4 5  |r|= 0.254  e= [0.22616461]  max|de|= -0.267  lindep= 0.998
davidson 5 6  |r|= 0.242  e= [0.18494881]  max|de|= -0.0412  lindep= 0.828
davidson 6 7  |r|= 0.118  e= [0.15975433]  max|de|= -0.0252  lindep= 0.918
davidson 7 8  |r|= 0.0674  e= [0.15488247]  max|de|= -0.00487  lindep= 0.789
davidson 8 9  |r|= 0.0775  e= [0.15138738]  max|de|= -0.0035  lindep= 0.819
davidson 9 10  |r|= 0.077  e= [0.14792238]  max|de|= -0.00347  lindep= 0.851
davidson 10 11  |r|= 0.0505  e= [0.14547363]  max|de|= -0.00245  lindep= 0.834
davidson 11 12  |r|= 0.0398  e= [0.14404197]  max|de|= -0.00143  lindep= 0.829
davidson 12 1  |r|= 0.0398  e= [0.14404197]  max|de|= -2.78e-17  lindep=    1
davidson 13 2  |r|= 0.0207  e= [0.14368145]  max|de|= -0.000361  lindep= 0.803
davidson 14 3  |r|= 0.0136  e= [0.14353484]  max|de|= -0.000147  lindep= 0.881
davidson 15 4  |r|= 0.011  e= [0.14346623]  max|de|= -6.86e-05  lindep= 0.821
root 0 converged  |r|= 0.00611  e= 0.14343800021315578  max|de|= -2.82e-05
converged 16 5  |r|= 0.00611  e= [0.143438]  max|de|= -2.82e-05
UHF/UKS wavefunction is stable in the internal stability analysis

******** <class 'pyphf.suscf.SUHF'> ********
Date: Mon Jul  5 14:40:21 2021
pyphf version 0.4.0
pyphf path  /share/home/srwang/ExSCF
GIT ORIG_HEAD 3359379feaf48d24d1be318eb6e2afc227b11fdb
GIT HEAD (branch main) bc10c7af3fe3904d1db1be08e3fae4560657cda2
max_cycle: 100
verbose: 4                # normal
conv_tol: 1e-07           # 1e-07 for RMSD(dm), 1e-05 for MaxD(dm), 1e-09 for dE
DIIS: <class 'pyscf.scf.diis.CDIIS'>
diis_start_cyc = 10
level shift: 0.500 a.u.
grids:  [0.06237655 0.31939555 0.74529195 1.28265786 1.85893479 2.39630071
 2.8221971  3.07921611] 
weights:  [0.15900941 0.34931531 0.49276925 0.56970235 0.56970235 0.49276925
 0.34931531 0.15900941]
S = 0.0, Sz = 0.0
Wigner small d:  1
value : [1. 1. 1. 1. 1. 1. 1. 1.]
time for Preparation before cyc: 0.122
**** Start Cycle 1 ****
time for NO, Ng: 0.320
time for Gg: 1.182
detC -1.0000000000000009
detNg [1.005536e+00 1.156347e+00 2.235842e+00 1.206978e+01 2.984779e+02 5.650466e+04 2.052699e+08 3.855387e+13]
xg [0.994495 0.864793 0.447259 0.082852 0.00335  0.000018 0.       0.      ]
ciS 0.30126999834915774
ciH -659.2613331322855
S2 = 0.000355
Hsp + Hph =  -2188.2740954784113
level shift: 0.500 a.u.
Alpha occ 24 vir 66; Beta occ 24 vir 66
Alpha energies:  [-0.371461 -0.371461 -0.371086 -0.371086 -0.370906 -0.223582] <- HOMO
         LUMO->  [0.525832 0.596171 0.596171 0.602946 0.636889 0.64657 ]
Beta energies:   [-0.371461 -0.371461 -0.371086 -0.371086 -0.370906 -0.223582] <- HOMO
         LUMO->  [0.525832 0.596171 0.596171 0.602946 0.636889 0.64657 ]
time for xg, H, S2, Yg, Feff: 0.063
 E =  -2086.67207098
**** Start Cycle 2 ****
time for NO, Ng: 0.316
time for Gg: 1.185
detC 1.000000000000008
detNg [1.005538e+00 1.156419e+00 2.236635e+00 1.208373e+01 2.993175e+02 5.681013e+04 2.070746e+08 3.940295e+13]
xg [0.994492 0.864738 0.4471   0.082756 0.003341 0.000018 0.       0.      ]
ciS 0.3011535647370699
ciH -659.0065755359135
S2 = 0.000358
Hsp + Hph =  -2188.2741986178266
level shift: 0.500 a.u.
Alpha occ 24 vir 66; Beta occ 24 vir 66
Alpha energies:  [-0.371033 -0.371033 -0.370743 -0.370743 -0.37062  -0.223718] <- HOMO
         LUMO->  [0.52595  0.596153 0.596153 0.602981 0.636828 0.646544]
Beta energies:   [-0.371033 -0.371033 -0.370743 -0.370743 -0.37062  -0.223718] <- HOMO
         LUMO->  [0.52595  0.596153 0.596153 0.602981 0.636828 0.646544]
time for xg, H, S2, Yg, Feff: 0.065
 E =  -2086.67217412, delta E = -0.000103139, MaxD(dm) = 0.000798657, RMSD(dm) = 4.50128e-05
**** Start Cycle 3 ****
time for NO, Ng: 0.317
time for Gg: 1.169
detC 0.9999999999999991
detNg [1.005540e+00 1.156466e+00 2.237152e+00 1.209281e+01 2.998641e+02 5.700740e+04 2.081703e+08 3.981225e+13]
xg [0.994491 0.864703 0.446997 0.082694 0.003335 0.000018 0.       0.      ]
ciS 0.30107789553648356
ciH -658.8410005642611
S2 = 0.000359
Hsp + Hph =  -2188.2742317907064
level shift: 0.500 a.u.
Alpha occ 24 vir 66; Beta occ 24 vir 66
Alpha energies:  [-0.371067 -0.371067 -0.370822 -0.370822 -0.370737 -0.223778] <- HOMO
         LUMO->  [0.526025 0.596137 0.596137 0.602987 0.6368   0.646565]
Beta energies:   [-0.371067 -0.371067 -0.370822 -0.370822 -0.370737 -0.223778] <- HOMO
         LUMO->  [0.526025 0.596137 0.596137 0.602987 0.6368   0.646565]
time for xg, H, S2, Yg, Feff: 0.060
 E =  -2086.67220729, delta E = -3.31729e-05, MaxD(dm) = 0.000548859, RMSD(dm) = 3.12565e-05
**** Start Cycle 4 ****
time for NO, Ng: 0.318
time for Gg: 1.175
detC -1.0000000000000084
detNg [1.005541e+00 1.156501e+00 2.237532e+00 1.209952e+01 3.002691e+02 5.715470e+04 2.090094e+08 4.015419e+13]
xg [0.99449  0.864677 0.446921 0.082648 0.00333  0.000017 0.       0.      ]
ciS 0.30102212960082375
ciH -658.7189737935253
S2 = 0.000360
Hsp + Hph =  -2188.274246371961
level shift: 0.500 a.u.
Alpha occ 24 vir 66; Beta occ 24 vir 66
Alpha energies:  [-0.37093  -0.37093  -0.370716 -0.370716 -0.370666 -0.223798] <- HOMO
         LUMO->  [0.526095 0.59614  0.59614  0.603004 0.63679  0.64659 ]
Beta energies:   [-0.37093  -0.37093  -0.370716 -0.370716 -0.370666 -0.223798] <- HOMO
         LUMO->  [0.526095 0.59614  0.59614  0.603004 0.63679  0.64659 ]
time for xg, H, S2, Yg, Feff: 0.063
 E =  -2086.67222188, delta E = -1.45813e-05, MaxD(dm) = 0.000384997, RMSD(dm) = 2.22068e-05
**** Start Cycle 5 ****
time for NO, Ng: 0.317
time for Gg: 1.178
detC -1.000000000000002
detNg [1.005542e+00 1.156526e+00 2.237811e+00 1.210444e+01 3.005667e+02 5.726298e+04 2.096219e+08 4.039313e+13]
xg [0.994489 0.864658 0.446865 0.082614 0.003327 0.000017 0.       0.      ]
ciS 0.3009812534910019
ciH -658.6295278067703
S2 = 0.000361
Hsp + Hph =  -2188.274253520778
level shift: 0.500 a.u.
Alpha occ 24 vir 66; Beta occ 24 vir 66
Alpha energies:  [-0.370881 -0.370881 -0.370689 -0.370689 -0.370666 -0.223818] <- HOMO
         LUMO->  [0.526148 0.59614  0.59614  0.603015 0.636781 0.646611]
Beta energies:   [-0.370881 -0.370881 -0.370689 -0.370689 -0.370666 -0.223818] <- HOMO
         LUMO->  [0.526148 0.59614  0.59614  0.603015 0.636781 0.646611]
time for xg, H, S2, Yg, Feff: 0.059
 E =  -2086.67222902, delta E = -7.14882e-06, MaxD(dm) = 0.000278293, RMSD(dm) = 1.61546e-05
**** Start Cycle 6 ****
time for NO, Ng: 0.318
time for Gg: 1.180
detC -1.000000000000001
detNg [1.005542e+00 1.156545e+00 2.238019e+00 1.210811e+01 3.007892e+02 5.734418e+04 2.100845e+08 4.057696e+13]
xg [0.994488 0.864644 0.446824 0.082589 0.003325 0.000017 0.       0.      ]
ciS 0.3009507668938526
ciH -658.5628158872443
S2 = 0.000361
Hsp + Hph =  -2188.274257229336
level shift: 0.500 a.u.
Alpha occ 24 vir 66; Beta occ 24 vir 66
Alpha energies:  [-0.370818 -0.370818 -0.37064  -0.37064  -0.370639 -0.223828] <- HOMO
         LUMO->  [0.526192 0.596144 0.596144 0.603026 0.636777 0.646631]
Beta energies:   [-0.370818 -0.370818 -0.37064  -0.37064  -0.370639 -0.223828] <- HOMO
         LUMO->  [0.526192 0.596144 0.596144 0.603026 0.636777 0.646631]
time for xg, H, S2, Yg, Feff: 0.062
 E =  -2086.67223273, delta E = -3.70856e-06, MaxD(dm) = 0.00020315, RMSD(dm) = 1.19548e-05
**** Start Cycle 7 ****
time for NO, Ng: 0.317
time for Gg: 1.173
detC -0.9999999999999919
detNg [1.005543e+00 1.156560e+00 2.238175e+00 1.211086e+01 3.009561e+02 5.740514e+04 2.104314e+08 4.071248e+13]
xg [0.994488 0.864633 0.446793 0.08257  0.003323 0.000017 0.       0.      ]
ciS 0.30092792439367044
ciH -658.5128308349318
S2 = 0.000362
Hsp + Hph =  -2188.274259232496
level shift: 0.500 a.u.
Alpha occ 24 vir 66; Beta occ 24 vir 66
Alpha energies:  [-0.370775 -0.370775 -0.370623 -0.370608 -0.370608 -0.223836] <- HOMO
         LUMO->  [0.526226 0.596149 0.596149 0.603036 0.636775 0.646648]
Beta energies:   [-0.370775 -0.370775 -0.370623 -0.370608 -0.370608 -0.223836] <- HOMO
         LUMO->  [0.526226 0.596149 0.596149 0.603036 0.636775 0.646648]
time for xg, H, S2, Yg, Feff: 0.056
 E =  -2086.67223474, delta E = -2.00316e-06, MaxD(dm) = 0.000150135, RMSD(dm) = 8.98584e-06
**** Start Cycle 8 ****
time for NO, Ng: 0.318
time for Gg: 1.170
detC 0.9999999999999958
detNg [1.005543e+00 1.156570e+00 2.238293e+00 1.211295e+01 3.010824e+02 5.745130e+04 2.106945e+08 4.081516e+13]
xg [0.994487 0.864625 0.446769 0.082556 0.003321 0.000017 0.       0.      ]
ciS 0.30091066595719407
ciH -658.4750649790142
S2 = 0.000362
Hsp + Hph =  -2188.274260350364
level shift: 0.500 a.u.
Alpha occ 24 vir 66; Beta occ 24 vir 66
Alpha energies:  [-0.370737 -0.370737 -0.370604 -0.370578 -0.370578 -0.22384 ] <- HOMO
         LUMO->  [0.526254 0.596153 0.596153 0.603045 0.636774 0.646662]
Beta energies:   [-0.370737 -0.370737 -0.370604 -0.370578 -0.370578 -0.22384 ] <- HOMO
         LUMO->  [0.526254 0.596153 0.596153 0.603045 0.636774 0.646662]
time for xg, H, S2, Yg, Feff: 0.058
 E =  -2086.67223585, delta E = -1.11787e-06, MaxD(dm) = 0.00011169, RMSD(dm) = 6.83749e-06
**** Start Cycle 9 ****
time for NO, Ng: 0.316
time for Gg: 1.177
detC -1.0000000000000022
detNg [1.005543e+00 1.156578e+00 2.238383e+00 1.211453e+01 3.011783e+02 5.748640e+04 2.108946e+08 4.089260e+13]
xg [0.994487 0.864619 0.446751 0.082546 0.00332  0.000017 0.       0.      ]
ciS 0.3008975609010808
ciH -658.4463877148257
S2 = 0.000362
Hsp + Hph =  -2188.2742609910624
level shift: 0.500 a.u.
Alpha occ 24 vir 66; Beta occ 24 vir 66
Alpha energies:  [-0.370707 -0.370707 -0.370589 -0.370554 -0.370554 -0.223844] <- HOMO
         LUMO->  [0.526276 0.596157 0.596157 0.603052 0.636774 0.646673]
Beta energies:   [-0.370707 -0.370707 -0.370589 -0.370554 -0.370554 -0.223844] <- HOMO
         LUMO->  [0.526276 0.596157 0.596157 0.603052 0.636774 0.646673]
time for xg, H, S2, Yg, Feff: 0.058
 E =  -2086.67223649, delta E = -6.40699e-07, MaxD(dm) = 8.36617e-05, RMSD(dm) = 5.25492e-06
**** Start Cycle 10 ****
time for NO, Ng: 0.316
time for Gg: 1.175
detC 1.0000000000000007
detNg [1.005544e+00 1.156585e+00 2.238451e+00 1.211573e+01 3.012516e+02 5.751323e+04 2.110477e+08 4.095182e+13]
xg [0.994487 0.864615 0.446738 0.082537 0.003319 0.000017 0.       0.      ]
ciS 0.3008875565856279
ciH -658.42449564171
S2 = 0.000362
Hsp + Hph =  -2188.274261366248
F(mod,ortho) updated with CDIIS
level shift: 0.500 a.u.
Alpha occ 24 vir 66; Beta occ 24 vir 66
Alpha energies:  [-0.370683 -0.370683 -0.370575 -0.370534 -0.370534 -0.223846] <- HOMO
         LUMO->  [0.526294 0.596161 0.596161 0.603058 0.636774 0.646682]
Beta energies:   [-0.370683 -0.370683 -0.370575 -0.370534 -0.370534 -0.223846] <- HOMO
         LUMO->  [0.526294 0.596161 0.596161 0.603058 0.636774 0.646682]
time for xg, H, S2, Yg, Feff: 0.057
 E =  -2086.67223687, delta E = -3.75186e-07, MaxD(dm) = 6.29836e-05, RMSD(dm) = 4.06989e-06
**** Start Cycle 11 ****
time for NO, Ng: 0.317
time for Gg: 1.173
detC 1.000000000000009
detNg [1.005544e+00 1.156589e+00 2.238503e+00 1.211666e+01 3.013078e+02 5.753381e+04 2.111654e+08 4.099739e+13]
xg [0.994487 0.864611 0.446727 0.082531 0.003319 0.000017 0.       0.      ]
ciS 0.3008798898689087
ciH -658.4077188300835
S2 = 0.000362
Hsp + Hph =  -2188.2742615897237
F(mod,ortho) updated with CDIIS
level shift: 0.500 a.u.
Alpha occ 24 vir 66; Beta occ 24 vir 66
Alpha energies:  [-0.370603 -0.370603 -0.370527 -0.370466 -0.370466 -0.223852] <- HOMO
         LUMO->  [0.526353 0.596174 0.596174 0.603078 0.636775 0.646714]
Beta energies:   [-0.370603 -0.370603 -0.370527 -0.370466 -0.370466 -0.223852] <- HOMO
         LUMO->  [0.526353 0.596174 0.596174 0.603078 0.636775 0.646714]
time for xg, H, S2, Yg, Feff: 0.059
 E =  -2086.67223709, delta E = -2.23476e-07, MaxD(dm) = 9.22255e-05, RMSD(dm) = 6.27868e-06
**** Start Cycle 12 ****
time for NO, Ng: 0.316
time for Gg: 1.175
detC 0.9999999999999977
detNg [1.005544e+00 1.156597e+00 2.238586e+00 1.211812e+01 3.013968e+02 5.756635e+04 2.113501e+08 4.106666e+13]
xg [0.994487 0.864605 0.446711 0.082521 0.003318 0.000017 0.       0.      ]
ciS 0.3008677563870521
ciH -658.3811675144382
S2 = 0.000363
Hsp + Hph =  -2188.27426182373
F(mod,ortho) updated with CDIIS
level shift: 0.500 a.u.
Alpha occ 24 vir 66; Beta occ 24 vir 66
Alpha energies:  [-0.370604 -0.370604 -0.370529 -0.370468 -0.370468 -0.223853] <- HOMO
         LUMO->  [0.526353 0.596174 0.596174 0.603078 0.636775 0.646713]
Beta energies:   [-0.370604 -0.370604 -0.370529 -0.370468 -0.370468 -0.223853] <- HOMO
         LUMO->  [0.526353 0.596174 0.596174 0.603078 0.636775 0.646713]
time for xg, H, S2, Yg, Feff: 0.058
 E =  -2086.67223733, delta E = -2.34006e-07, MaxD(dm) = 4.88151e-05, RMSD(dm) = 3.38258e-06
**** Start Cycle 13 ****
time for NO, Ng: 0.316
time for Gg: 1.175
detC -1.000000000000002
detNg [1.005544e+00 1.156601e+00 2.238629e+00 1.211889e+01 3.014431e+02 5.758335e+04 2.114478e+08 4.110494e+13]
xg [0.994486 0.864602 0.446702 0.082516 0.003317 0.000017 0.       0.      ]
ciS 0.30086144301616674
ciH -658.3673521491529
S2 = 0.000363
Hsp + Hph =  -2188.2742618959505
F(mod,ortho) updated with CDIIS
level shift: 0.500 a.u.
Alpha occ 24 vir 66; Beta occ 24 vir 66
Alpha energies:  [-0.370597 -0.370597 -0.370522 -0.370461 -0.370461 -0.223854] <- HOMO
         LUMO->  [0.52636  0.596176 0.596176 0.60308  0.636776 0.646717]
Beta energies:   [-0.370597 -0.370597 -0.370522 -0.370461 -0.370461 -0.223854] <- HOMO
         LUMO->  [0.52636  0.596176 0.596176 0.60308  0.636776 0.646717]
time for xg, H, S2, Yg, Feff: 0.058
 E =  -2086.67223740, delta E = -7.22207e-08, MaxD(dm) = 2.76324e-05, RMSD(dm) = 2.25564e-06
**** Start Cycle 14 ****
time for NO, Ng: 0.316
time for Gg: 1.175
detC -1.000000000000004
detNg [1.005544e+00 1.156603e+00 2.238654e+00 1.211933e+01 3.014703e+02 5.759341e+04 2.115075e+08 4.113082e+13]
xg [0.994486 0.864601 0.446697 0.082513 0.003317 0.000017 0.       0.      ]
ciS 0.30085774418348343
ciH -658.3592580975535
S2 = 0.000363
Hsp + Hph =  -2188.274261925069
F(mod,ortho) updated with CDIIS
level shift: 0.500 a.u.
Alpha occ 24 vir 66; Beta occ 24 vir 66
Alpha energies:  [-0.370594 -0.370594 -0.370518 -0.370457 -0.370457 -0.223854] <- HOMO
         LUMO->  [0.52636  0.596177 0.596177 0.603081 0.636776 0.646718]
Beta energies:   [-0.370594 -0.370594 -0.370518 -0.370457 -0.370457 -0.223854] <- HOMO
         LUMO->  [0.52636  0.596177 0.596177 0.603081 0.636776 0.646718]
time for xg, H, S2, Yg, Feff: 0.060
 E =  -2086.67223743, delta E = -2.91184e-08, MaxD(dm) = 1.53405e-05, RMSD(dm) = 1.32031e-06
**** Start Cycle 15 ****
time for NO, Ng: 0.317
time for Gg: 1.174
detC -1.0000000000000062
detNg [1.005544e+00 1.156604e+00 2.238668e+00 1.211957e+01 3.014847e+02 5.759874e+04 2.115401e+08 4.114602e+13]
xg [0.994486 0.8646   0.446694 0.082511 0.003317 0.000017 0.       0.      ]
ciS 0.30085579347138525
ciH -658.354989407591
S2 = 0.000363
Hsp + Hph =  -2188.2742619354217
F(mod,ortho) updated with CDIIS
level shift: 0.500 a.u.
Alpha occ 24 vir 66; Beta occ 24 vir 66
Alpha energies:  [-0.370594 -0.370594 -0.370515 -0.370457 -0.370457 -0.223853] <- HOMO
         LUMO->  [0.526361 0.596177 0.596177 0.603081 0.636776 0.646718]
Beta energies:   [-0.370594 -0.370594 -0.370515 -0.370457 -0.370457 -0.223853] <- HOMO
         LUMO->  [0.526361 0.596177 0.596177 0.603081 0.636776 0.646718]
time for xg, H, S2, Yg, Feff: 0.060
 E =  -2086.67223744, delta E = -1.03528e-08, MaxD(dm) = 8.89329e-06, RMSD(dm) = 8.27064e-07
**** Start Cycle 16 ****
time for NO, Ng: 0.316
time for Gg: 1.172
detC 1.0
detNg [1.005544e+00 1.156605e+00 2.238674e+00 1.211968e+01 3.014915e+02 5.760135e+04 2.115578e+08 4.115676e+13]
xg [0.994486 0.864599 0.446693 0.08251  0.003317 0.000017 0.       0.      ]
ciS 0.30085487233405184
ciH -658.3529737076724
S2 = 0.000363
Hsp + Hph =  -2188.274261939409
F(mod,ortho) updated with CDIIS
level shift: 0.500 a.u.
Alpha occ 24 vir 66; Beta occ 24 vir 66
Alpha energies:  [-0.370591 -0.370591 -0.370512 -0.370455 -0.370455 -0.223852] <- HOMO
         LUMO->  [0.526362 0.596178 0.596178 0.603081 0.636776 0.646719]
Beta energies:   [-0.370591 -0.370591 -0.370512 -0.370455 -0.370455 -0.223852] <- HOMO
         LUMO->  [0.526362 0.596178 0.596178 0.603081 0.636776 0.646719]
time for xg, H, S2, Yg, Feff: 0.059
 E =  -2086.67223744, delta E = -3.98722e-09, MaxD(dm) = 5.18319e-06, RMSD(dm) = 5.02992e-07
**** Start Cycle 17 ****
time for NO, Ng: 0.313
time for Gg: 1.173
detC -0.9999999999999987
detNg [1.005544e+00 1.156605e+00 2.238677e+00 1.211973e+01 3.014945e+02 5.760253e+04 2.115671e+08 4.116394e+13]
xg [0.994486 0.864599 0.446692 0.08251  0.003317 0.000017 0.       0.      ]
ciS 0.3008544723235858
ciH -658.3520983755067
S2 = 0.000363
Hsp + Hph =  -2188.274261940877
F(mod,ortho) updated with CDIIS
level shift: 0.500 a.u.
Alpha occ 24 vir 66; Beta occ 24 vir 66
Alpha energies:  [-0.370591 -0.370591 -0.370511 -0.370454 -0.370454 -0.223852] <- HOMO
         LUMO->  [0.526362 0.596178 0.596178 0.603081 0.636776 0.646719]
Beta energies:   [-0.370591 -0.370591 -0.370511 -0.370454 -0.370454 -0.223852] <- HOMO
         LUMO->  [0.526362 0.596178 0.596178 0.603081 0.636776 0.646719]
time for xg, H, S2, Yg, Feff: 0.055
 E =  -2086.67223744, delta E = -1.46792e-09, MaxD(dm) = 3.27633e-06, RMSD(dm) = 3.02973e-07
**** Start Cycle 18 ****
time for NO, Ng: 0.317
time for Gg: 1.175
detC 1.000000000000008
detNg [1.005544e+00 1.156605e+00 2.238678e+00 1.211975e+01 3.014958e+02 5.760306e+04 2.115719e+08 4.116835e+13]
xg [0.994486 0.864599 0.446692 0.08251  0.003317 0.000017 0.       0.      ]
ciS 0.30085430537027646
ciH -658.3517330360421
S2 = 0.000363
Hsp + Hph =  -2188.274261941426
F(mod,ortho) updated with CDIIS
level shift: 0.500 a.u.
Alpha occ 24 vir 66; Beta occ 24 vir 66
Alpha energies:  [-0.37059  -0.37059  -0.37051  -0.370453 -0.370453 -0.223852] <- HOMO
         LUMO->  [0.526362 0.596179 0.596179 0.603081 0.636776 0.646719]
Beta energies:   [-0.37059  -0.37059  -0.37051  -0.370453 -0.370453 -0.223852] <- HOMO
         LUMO->  [0.526362 0.596179 0.596179 0.603081 0.636776 0.646719]
time for xg, H, S2, Yg, Feff: 0.056
 E =  -2086.67223744, delta E = -5.49335e-10, MaxD(dm) = 2.07371e-06, RMSD(dm) = 1.90049e-07
**** Start Cycle 19 ****
time for NO, Ng: 0.316
time for Gg: 1.169
detC -1.0000000000000113
detNg [1.005544e+00 1.156605e+00 2.238678e+00 1.211975e+01 3.014960e+02 5.760316e+04 2.115738e+08 4.117100e+13]
xg [0.994486 0.864599 0.446692 0.08251  0.003317 0.000017 0.       0.      ]
ciS 0.30085428819347537
ciH -658.3516954485556
S2 = 0.000363
Hsp + Hph =  -2188.274261941642
F(mod,ortho) updated with CDIIS
level shift: 0.500 a.u.
Alpha occ 24 vir 66; Beta occ 24 vir 66
Alpha energies:  [-0.37059  -0.37059  -0.37051  -0.370453 -0.370453 -0.223851] <- HOMO
         LUMO->  [0.526362 0.596179 0.596179 0.603081 0.636777 0.64672 ]
Beta energies:   [-0.37059  -0.37059  -0.37051  -0.370453 -0.370453 -0.223851] <- HOMO
         LUMO->  [0.526362 0.596179 0.596179 0.603081 0.636777 0.64672 ]
time for xg, H, S2, Yg, Feff: 0.055
 E =  -2086.67223745, delta E = -2.16005e-10, MaxD(dm) = 1.46172e-06, RMSD(dm) =  1.177e-07
**** Start Cycle 20 ****
time for NO, Ng: 0.318
time for Gg: 1.174
detC 0.9999999999999979
detNg [1.005544e+00 1.156605e+00 2.238678e+00 1.211974e+01 3.014956e+02 5.760306e+04 2.115742e+08 4.117248e+13]
xg [0.994486 0.864599 0.446692 0.08251  0.003317 0.000017 0.       0.      ]
ciS 0.3008543429008207
ciH -658.3518151632577
S2 = 0.000363
Hsp + Hph =  -2188.2742619417304
F(mod,ortho) updated with CDIIS
level shift: 0.500 a.u.
Alpha occ 24 vir 66; Beta occ 24 vir 66
Alpha energies:  [-0.370589 -0.370589 -0.370509 -0.370453 -0.370453 -0.223851] <- HOMO
         LUMO->  [0.526362 0.596179 0.596179 0.603081 0.636777 0.64672 ]
Beta energies:   [-0.370589 -0.370589 -0.370509 -0.370453 -0.370453 -0.223851] <- HOMO
         LUMO->  [0.526362 0.596179 0.596179 0.603081 0.636777 0.64672 ]
time for xg, H, S2, Yg, Feff: 0.055

***************
SUHF converged at cycle 20
Final E(SUHF) =  -2086.67223745, delta E = -8.8221e-11, MaxD(dm) = 1.04183e-06, RMSD(dm) = 7.79074e-08
**** Extra Cycle 21 ****
detC -0.9999999999999984
detNg [1.005544e+00 1.156605e+00 2.238677e+00 1.211974e+01 3.014950e+02 5.760287e+04 2.115738e+08 4.117326e+13]
xg [0.994486 0.864599 0.446692 0.08251  0.003317 0.000017 0.       0.      ]
ciS 0.3008544228558983
ciH -658.3519901269083
S2 = 0.000363
Hsp + Hph =  -2188.274261941771
Alpha occ 24 vir 66; Beta occ 24 vir 66
Alpha energies:  [-0.37059  -0.37059  -0.37051  -0.370453 -0.370453 -0.223851] <- HOMO
         LUMO->  [0.026362 0.096179 0.096179 0.103081 0.136777 0.146719]
Beta energies:   [-0.37059  -0.37059  -0.37051  -0.370453 -0.370453 -0.223851] <- HOMO
         LUMO->  [0.026362 0.096179 0.096179 0.103081 0.136777 0.146719]
Extra E(SUHF) =  -2086.67223745, delta E = -4.04725e-11, MaxD(dm) = 1.30347e-06, RMSD(dm) = 8.65302e-08
time for cyc: 32.560
******* suhf density *****
Clebsch-Gordan coeff: < 0 0 0 0 | 0 0 > = 1
Clebsch-Gordan coeff: < 0 0 1 0 | 0 0 > = 0
xggint 1.0
time for 1pdm: 0.032
SUHF NO occ alpha:  1.000000  1.000000  1.000000  1.000000  1.000000  0.999999  0.999999  0.999999  0.999999  0.999999  0.999999  0.999999  0.999997  0.999997  0.999997  0.999997  0.999996  0.999996  0.807785  0.533065  0.531977  0.531977  0.507059  0.507059  0.492941  0.492941  0.468023  0.468023  0.466935  0.192215  0.000004  0.000004  0.000003  0.000003  0.000003  0.000003  ...
SUHF NO occ beta:   1.000000  1.000000  1.000000  1.000000  1.000000  0.999999  0.999999  0.999999  0.999999  0.999999  0.999999  0.999999  0.999997  0.999997  0.999997  0.999997  0.999996  0.999996  0.807785  0.533065  0.531977  0.531977  0.507059  0.507059  0.492941  0.492941  0.468023  0.468023  0.466935  0.192215  0.000004  0.000004  0.000003  0.000003  0.000003  0.000003  ...
SUHF NO occ total:  2.000000  2.000000  2.000000  2.000000  2.000000  1.999999  1.999999  1.999999  1.999998  1.999998  1.999998  1.999998  1.999995  1.999994  1.999994  1.999993  1.999992  1.999992  1.615570  1.066131  1.063955  1.063955  1.014118  1.014118  0.985882  0.985882  0.936045  0.936045  0.933869  0.384430  0.000008  0.000008  0.000007  0.000006  0.000006  0.000005  0.000002  0.000002  0.000002  0.000002  0.000001  0.000001  0.000001  ...
core 18, active 12, external 60
time for natorb: 0.061
***** End of SUHF *****
time tot: 32.775
Date: Mon Jul  5 14:40:54 2021
