HF file generated by AutoMR of MOKIT                                    
Stability UHF                                                         Gen                 
Number of atoms                            I                2
Info1-9                                    I   N=           9
           6           5           0           0           0         110
           7           1           2
Charge                                     I                0
Multiplicity                               I                1
Number of electrons                        I               48
Number of alpha electrons                  I               24
Number of beta electrons                   I               24
Number of basis functions                  I               90
Number of independent functions            I               90
Number of point charges in /Mol/           I                0
Number of translation vectors              I                0
Atomic numbers                             I   N=           2
          24          24
Nuclear charges                            R   N=           2
  2.40000000E+01  2.40000000E+01
Current cartesian coordinates              R   N=           6
  0.00000000E+00  0.00000000E+00  0.00000000E+00  0.00000000E+00  0.00000000E+00
  7.55890453E+00
Force Field                                I                0
Int Atom Types                             I   N=           2
           0           0
MM charges                                 R   N=           2
  0.00000000E+00  0.00000000E+00
Integer atomic weights                     I   N=           2
          52          52
Real atomic weights                        R   N=           2
  5.19405097E+01  5.19405097E+01
Atom fragment info                         I   N=           2
           1           2
Atom residue num                           I   N=           2
           0           0
Nuclear spins                              I   N=           2
           0           0
Nuclear ZEff                               R   N=           2
 -2.47200000E+01 -2.47200000E+01
Nuclear QMom                               R   N=           2
  0.00000000E+00  0.00000000E+00
Nuclear GFac                               R   N=           2
  0.00000000E+00  0.00000000E+00
MicOpt                                     I   N=           2
          -1          -1
Number of contracted shells                I               30
Number of primitive shells                 I               72
Pure/Cartesian d shells                    I                0
Pure/Cartesian f shells                    I                0
Highest angular momentum                   I                3
Largest degree of contraction              I                8
Shell types                                I   N=          30
           0           0           0           0           0           0
           1           1           1          -2          -2          -2
           1          -2          -3           0           0           0
           0           0           0           1           1           1
          -2          -2          -2           1          -2          -3
Number of primitives per shell             I   N=          30
           8           4           2           1           1           1
           6           3           1           4           1           1
           1           1           1           8           4           2
           1           1           1           6           3           1
           4           1           1           1           1           1
Shell to atom map                          I   N=          30
           1           1           1           1           1           1
           1           1           1           1           1           1
           1           1           1           2           2           2
           2           2           2           2           2           2
           2           2           2           2           2           2
Primitive exponents                        R   N=          72
  2.54477807E+05  3.81317971E+04  8.67529306E+03  2.45500998E+03  7.99162178E+02
  2.86900215E+02  1.11254132E+02  4.38641526E+01  2.79326692E+02  8.62747324E+01
  1.35557561E+01  5.69781128E+00  8.56365826E+00  1.39882968E+00  5.72881711E-01
  9.00961713E-02  3.41258851E-02  1.30643989E+03  3.09253114E+02  9.89962740E+01
  3.67569165E+01  1.45666571E+01  5.87399374E+00  2.28909997E+01  3.08550018E+00
  1.21323291E+00  4.49316807E-01  4.37200745E+01  1.23912427E+01  4.26394420E+00
  1.55252218E+00  5.37619295E-01  1.64931731E-01  1.20675000E-01  5.10000000E-02
  1.14700000E+00  2.54477807E+05  3.81317971E+04  8.67529306E+03  2.45500998E+03
  7.99162178E+02  2.86900215E+02  1.11254132E+02  4.38641526E+01  2.79326692E+02
  8.62747324E+01  1.35557561E+01  5.69781128E+00  8.56365826E+00  1.39882968E+00
  5.72881711E-01  9.00961713E-02  3.41258851E-02  1.30643989E+03  3.09253114E+02
  9.89962740E+01  3.67569165E+01  1.45666571E+01  5.87399374E+00  2.28909997E+01
  3.08550018E+00  1.21323291E+00  4.49316807E-01  4.37200745E+01  1.23912427E+01
  4.26394420E+00  1.55252218E+00  5.37619295E-01  1.64931731E-01  1.20675000E-01
  5.10000000E-02  1.14700000E+00
Contraction coefficients                   R   N=          72
  2.42904776E-04  1.88435236E-03  9.80095844E-03  3.98250087E-02  1.29405437E-01
  3.06290018E-01  4.34628350E-01  2.24695629E-01 -2.43633579E-02 -1.15114954E-01
  5.50922663E-01  5.36113547E-01 -3.71230177E-01  1.16811695E+00  1.00000000E+00
  1.00000000E+00  1.00000000E+00  2.82928007E-03  2.27766292E-02  1.05645619E-01
  2.99499449E-01  4.77062454E-01  2.76542344E-01 -1.94121061E-02  3.86188758E-01
  6.76239089E-01  1.00000000E+00  2.20932593E-02  1.28014388E-01  3.86529103E-01
  6.41033014E-01  1.00000000E+00  1.00000000E+00  1.00000000E+00  1.00000000E+00
  1.00000000E+00  2.42904776E-04  1.88435236E-03  9.80095844E-03  3.98250087E-02
  1.29405437E-01  3.06290018E-01  4.34628350E-01  2.24695629E-01 -2.43633579E-02
 -1.15114954E-01  5.50922663E-01  5.36113547E-01 -3.71230177E-01  1.16811695E+00
  1.00000000E+00  1.00000000E+00  1.00000000E+00  2.82928007E-03  2.27766292E-02
  1.05645619E-01  2.99499449E-01  4.77062454E-01  2.76542344E-01 -1.94121061E-02
  3.86188758E-01  6.76239089E-01  1.00000000E+00  2.20932593E-02  1.28014388E-01
  3.86529103E-01  6.41033014E-01  1.00000000E+00  1.00000000E+00  1.00000000E+00
  1.00000000E+00  1.00000000E+00
Coordinates of each shell                  R   N=          90
  0.00000000E+00  0.00000000E+00  0.00000000E+00  0.00000000E+00  0.00000000E+00
  0.00000000E+00  0.00000000E+00  0.00000000E+00  0.00000000E+00  0.00000000E+00
  0.00000000E+00  0.00000000E+00  0.00000000E+00  0.00000000E+00  0.00000000E+00
  0.00000000E+00  0.00000000E+00  0.00000000E+00  0.00000000E+00  0.00000000E+00
  0.00000000E+00  0.00000000E+00  0.00000000E+00  0.00000000E+00  0.00000000E+00
  0.00000000E+00  0.00000000E+00  0.00000000E+00  0.00000000E+00  0.00000000E+00
  0.00000000E+00  0.00000000E+00  0.00000000E+00  0.00000000E+00  0.00000000E+00
  0.00000000E+00  0.00000000E+00  0.00000000E+00  0.00000000E+00  0.00000000E+00
  0.00000000E+00  0.00000000E+00  0.00000000E+00  0.00000000E+00  0.00000000E+00
  0.00000000E+00  0.00000000E+00  7.55890453E+00  0.00000000E+00  0.00000000E+00
  7.55890453E+00  0.00000000E+00  0.00000000E+00  7.55890453E+00  0.00000000E+00
  0.00000000E+00  7.55890453E+00  0.00000000E+00  0.00000000E+00  7.55890453E+00
  0.00000000E+00  0.00000000E+00  7.55890453E+00  0.00000000E+00  0.00000000E+00
  7.55890453E+00  0.00000000E+00  0.00000000E+00  7.55890453E+00  0.00000000E+00
  0.00000000E+00  7.55890453E+00  0.00000000E+00  0.00000000E+00  7.55890453E+00
  0.00000000E+00  0.00000000E+00  7.55890453E+00  0.00000000E+00  0.00000000E+00
  7.55890453E+00  0.00000000E+00  0.00000000E+00  7.55890453E+00  0.00000000E+00
  0.00000000E+00  7.55890453E+00  0.00000000E+00  0.00000000E+00  7.55890453E+00
Constraint Structure                       R   N=           6
  0.00000000E+00  0.00000000E+00  0.00000000E+00  0.00000000E+00  0.00000000E+00
  7.55890453E+00
Num ILSW                                   I              100
ILSW                                       I   N=         100
           1           0           0           0           2           1
           0           0           0           0           0          -1
           0           0           0           0           0           0
           0           0           0           0           0           0
           1           1           0           0           0           0
           0           0      100000           0          -1           0
           0           0           0           0           0           0
           0           0           0           1           0           0
           0           0           1           0           0           0
           0           0           4          40           0           0
           0           0           0           0           0           0
           0           0           0           0           0           0
           0           0           0           0           0           0
           0           0           0           0           0           0
           0           0           0           0           0           0
           0           0           0           0           0           0
           0           0           0           0
Num RLSW                                   I               40
RLSW                                       R   N=          40
  1.00000000E+00  1.00000000E+00  1.00000000E+00  1.00000000E+00  1.00000000E+00
  0.00000000E+00  0.00000000E+00  1.00000000E+00  0.00000000E+00  0.00000000E+00
  0.00000000E+00  0.00000000E+00  1.00000000E+00  0.00000000E+00  0.00000000E+00
  0.00000000E+00  0.00000000E+00  1.00000000E+00  0.00000000E+00  0.00000000E+00
  0.00000000E+00  0.00000000E+00  1.00000000E+00  0.00000000E+00  0.00000000E+00
  0.00000000E+00  0.00000000E+00  1.00000000E+00  0.00000000E+00  0.00000000E+00
  0.00000000E+00  0.00000000E+00  1.00000000E+00  0.00000000E+00  0.00000000E+00
  0.00000000E+00  0.00000000E+00  0.00000000E+00  1.00000000E+00  1.00000000E+00
ECP-MxAtEC                                 I           250000
ECP-MaxLECP                                I               10
ECP-MaxAtL                                 I          2250000
ECP-MxTECP                                 I         11250000
ECP-LenNCZ                                 I                0
ECP-KFirst                                 I   N=          20
           0           0           0           0           0           0
           0           0           0           0           0           0
           0           0           0           0           0           0
           0           0
ECP-KLast                                  I   N=          20
           0           0           0           0           0           0
           0           0           0           0           0           0
           0           0           0           0           0           0
           0           0
ECP-LMax                                   I   N=           2
           0           0
ECP-LPSkip                                 I   N=           2
           1           1
ECP-RNFroz                                 R   N=           2
  0.00000000E+00  0.00000000E+00
ECP-NLP                                    I                0
ECP-CLP1                                   R      0.000000000000000E+00
ECP-CLP2                                   R      0.000000000000000E+00
ECP-ZLP                                    R      0.000000000000000E+00
MxBond                                     I                1
NBond                                      I   N=           2
           0           0
IBond                                      I   N=           2
           0           0
RBond                                      R   N=           2
  0.00000000E+00  0.00000000E+00
Virial Ratio                               R      2.000025260610248E+00
SCF Energy                                 R     -2.086670643535294E+03
Total Energy                               R     -2.086670643535294E+03
S**2                                       R      5.898514692580861E+00
S**2 after annihilation                    R      1.824398861277378E+01
RMS Density                                R      1.915882148184216E-09
External E-field                           R   N=          35
  0.00000000E+00  0.00000000E+00  0.00000000E+00  0.00000000E+00  0.00000000E+00
  0.00000000E+00  0.00000000E+00  0.00000000E+00  0.00000000E+00  0.00000000E+00
  0.00000000E+00  0.00000000E+00  0.00000000E+00  0.00000000E+00  0.00000000E+00
  0.00000000E+00  0.00000000E+00  0.00000000E+00  0.00000000E+00  0.00000000E+00
  0.00000000E+00  0.00000000E+00  0.00000000E+00  0.00000000E+00  0.00000000E+00
  0.00000000E+00  0.00000000E+00  0.00000000E+00  0.00000000E+00  0.00000000E+00
  0.00000000E+00  0.00000000E+00  0.00000000E+00  0.00000000E+00  0.00000000E+00
IOpCl                                      I                1
IROHF                                      I                0
Alpha Orbital Energies                     R   N=          90
 -2.20387292E+02 -2.20385191E+02 -2.62609612E+01 -2.61596799E+01 -2.21898406E+01
 -2.21898406E+01 -2.21897458E+01 -2.20912282E+01 -2.20912071E+01 -2.20912071E+01
 -3.45937493E+00 -3.11214113E+00 -2.26228303E+00 -2.26228303E+00 -2.26221087E+00
 -1.84082917E+00 -1.84077621E+00 -1.84077621E+00 -3.73268033E-01 -3.73268033E-01
 -3.73142992E-01 -3.73142992E-01 -3.72714731E-01 -2.22311616E-01  2.59964282E-02
  1.11097448E-01  1.11097448E-01  1.15683754E-01  1.45240119E-01  1.45240119E-01
  1.46340383E-01  1.50285211E-01  1.50285211E-01  1.59142813E-01  1.79654207E-01
  1.79654207E-01  2.02155577E-01  2.02155577E-01  2.04745021E-01  2.69749199E-01
  2.91479696E-01  2.91479696E-01  3.65330300E-01  3.97867112E-01  3.97867112E-01
  3.98842666E-01  3.98842666E-01  3.99156213E-01  6.52918464E-01  6.52918464E-01
  6.53144073E-01  6.53144073E-01  6.58584975E-01  8.34901649E-01  8.34901649E-01
  8.36040592E-01  8.36040592E-01  8.71103777E-01  1.64677885E+00  1.64677885E+00
  1.66282735E+00  1.78409537E+00  1.78409537E+00  1.89529039E+00  2.32609283E+00
  2.45125746E+00  2.48635050E+00  2.48635050E+00  2.48685159E+00  2.48685159E+00
  2.51168515E+00  2.67356692E+00  2.67356692E+00  2.67569421E+00  2.67569421E+00
  2.71417905E+00  3.33250602E+00  3.33250602E+00  3.33261951E+00  3.33261951E+00
  3.33285947E+00  3.33285947E+00  3.33354254E+00  3.56729567E+00  3.56729567E+00
  3.56733013E+00  3.56733013E+00  3.56739012E+00  3.56739012E+00  3.56779140E+00
Beta Orbital Energies                      R   N=          90
 -2.20387292E+02 -2.20385191E+02 -2.62609612E+01 -2.61596799E+01 -2.21898406E+01
 -2.21898406E+01 -2.21897458E+01 -2.20912282E+01 -2.20912071E+01 -2.20912071E+01
 -3.45937493E+00 -3.11214113E+00 -2.26228303E+00 -2.26228303E+00 -2.26221087E+00
 -1.84082917E+00 -1.84077621E+00 -1.84077621E+00 -3.73268033E-01 -3.73268033E-01
 -3.73142992E-01 -3.73142992E-01 -3.72714731E-01 -2.22311616E-01  2.59964282E-02
  1.11097448E-01  1.11097448E-01  1.15683754E-01  1.45240119E-01  1.45240119E-01
  1.46340383E-01  1.50285211E-01  1.50285211E-01  1.59142813E-01  1.79654207E-01
  1.79654207E-01  2.02155577E-01  2.02155577E-01  2.04745021E-01  2.69749199E-01
  2.91479696E-01  2.91479696E-01  3.65330300E-01  3.97867111E-01  3.97867111E-01
  3.98842666E-01  3.98842666E-01  3.99156213E-01  6.52918464E-01  6.52918464E-01
  6.53144073E-01  6.53144073E-01  6.58584975E-01  8.34901649E-01  8.34901649E-01
  8.36040592E-01  8.36040592E-01  8.71103777E-01  1.64677885E+00  1.64677885E+00
  1.66282735E+00  1.78409537E+00  1.78409537E+00  1.89529039E+00  2.32609283E+00
  2.45125746E+00  2.48635050E+00  2.48635050E+00  2.48685159E+00  2.48685159E+00
  2.51168515E+00  2.67356692E+00  2.67356692E+00  2.67569421E+00  2.67569421E+00
  2.71417905E+00  3.33250602E+00  3.33250602E+00  3.33261951E+00  3.33261951E+00
  3.33285947E+00  3.33285947E+00  3.33354254E+00  3.56729567E+00  3.56729567E+00
  3.56733013E+00  3.56733013E+00  3.56739012E+00  3.56739012E+00  3.56779140E+00
Alpha MO coefficients                      R   N=        8100
  9.97814720E-01  6.97196451E-03 -2.26635393E-03  1.46731440E-03 -4.65240796E-04
  2.20367225E-04 -7.48897432E-17 -7.05790873E-18 -3.30949686E-07  9.67071566E-17
 -1.23376809E-16 -1.40787149E-06 -1.33796017E-16  1.76298943E-16  4.54173979E-06
 -1.58400929E-06 -3.13501260E-17  1.88903693E-16  2.33016958E-17 -4.01328100E-18
  5.78799852E-06 -4.04858345E-17 -2.39030550E-16 -2.34569365E-17  3.90292814E-18
 -1.37038714E-05  1.43341011E-16  8.74867905E-17 -1.03571241E-17  2.97680641E-18
  4.45248114E-17 -1.08538932E-16 -1.22495567E-05  1.08526289E-05 -1.02317010E-16
 -9.44451070E-17  4.51980338E-17 -5.66720347E-18 -8.34712712E-08 -1.06286549E-15
 -7.75677615E-16 -7.78305813E-17  5.46028885E-17  7.87334090E-17 -1.01275152E-16
 -9.33400331E-05  4.73319760E-09  5.20909683E-06 -8.44869852E-06 -3.58461656E-06
 -1.17428390E-05  3.85209095E-17 -1.74683865E-16  1.23410910E-06 -2.55680433E-17
  1.40925658E-16 -5.93466823E-06  4.32305250E-17 -2.34021694E-16  1.44964036E-05
  1.94889799E-06 -9.36801925E-17  3.89487160E-17  1.45691830E-16 -7.79618741E-18
 -6.40630536E-06 -2.04675685E-17 -1.26334325E-16 -3.06145477E-16  8.85528368E-18
  5.92523353E-06  1.01035428E-16  2.53777457E-16  3.12757253E-16 -2.03415611E-17
 -2.25645704E-17  1.74608853E-16 -1.27346908E-05  3.22679980E-05 -8.50338689E-17
 -2.44214929E-16 -2.01651826E-16  1.78984211E-17 -5.08770965E-07  5.38709839E-17
 -1.54397707E-16 -3.96402519E-17 -3.81395948E-16  4.59382402E-17  4.01967901E-17
  9.38535488E-05  1.31391639E-06  4.79596763E-06 -8.20086178E-06 -3.67064406E-06
 -1.17330004E-05 -1.73711010E-17  3.87218622E-17 -1.23711316E-06 -1.74577303E-17
  5.27192472E-17  5.95188537E-06  7.29524093E-17 -7.73558973E-17 -1.45381735E-05
  1.95667405E-06  4.78484148E-17  3.12742161E-17  2.79383987E-17  2.30381527E-17
 -6.42309812E-06 -6.99313070E-17 -4.74893073E-17 -2.57617885E-17 -5.79339485E-17
  5.94224330E-06  6.86107685E-17  3.33846926E-17 -2.21391823E-17  4.62857920E-17
 -1.64988829E-16  7.53643761E-17  1.27734116E-05  3.23585203E-05 -1.99034057E-16
  3.93531745E-17  4.94322095E-17  1.49526877E-17  5.09716749E-07  1.06706696E-16
  2.20325136E-17  7.81557046E-17  8.74180513E-17 -1.81764635E-16  4.83519599E-17
  9.97820458E-01  6.95209436E-03 -2.27343749E-03  1.47073528E-03 -4.66507089E-04
  2.20969027E-04  2.28016514E-18 -1.14445277E-16  1.92224526E-07  4.47247166E-17
  5.12930593E-18  1.35766015E-06 -8.60031391E-17 -1.97455737E-17 -4.54307309E-06
 -1.58508612E-06  2.78168040E-16 -2.45515808E-16  7.72410958E-17  1.52668805E-17
  5.80100173E-06 -4.69839859E-16  6.48667078E-16 -1.41031663E-16  5.15540481E-18
 -1.37370777E-05  4.85655118E-16 -6.94483195E-16  3.86079258E-17 -2.63290860E-17
  1.00114814E-16  2.41304232E-17  1.22777896E-05  1.08886421E-05 -4.38871141E-16
  3.77019322E-16 -2.04256131E-17  4.12153374E-17  9.75114731E-08 -5.27620727E-17
  1.42552112E-16  1.42791261E-15  1.07409724E-15  1.53732148E-17 -1.21215735E-16
 -3.11649630E-01  1.03613204E+00  3.58838415E-02 -9.40175563E-03  2.51387343E-03
 -1.15340806E-03 -5.45282727E-16 -3.46000763E-16 -7.50354398E-05  9.21212048E-17
  2.31940278E-17  2.53512933E-06 -1.50281389E-16 -5.02775534E-17 -2.22361406E-05
  5.41851271E-06  6.80320707E-17 -1.01118552E-16  2.12314053E-16  6.56906095E-17
 -2.79175331E-05 -5.88232806E-17  5.09792342E-17 -1.04612708E-16 -1.88854499E-16
  6.85392734E-05 -4.69755825E-17  1.04441098E-16 -9.79059964E-17  2.51918113E-16
  1.03508851E-16  1.18390464E-17  6.25778567E-05 -5.31636558E-05  1.41254340E-16
 -9.71198721E-17  1.15409809E-16 -1.21592807E-16 -3.22651264E-07  2.95439340E-16
  2.31308788E-16 -3.34034120E-16 -6.31813224E-16 -7.65320012E-16  1.88956554E-16
  4.23199048E-07 -9.12105700E-06 -2.52457998E-05  4.31932685E-05  1.53935652E-05
  6.19644251E-05  5.16426986E-16 -7.11163637E-16 -5.71898811E-06 -5.86333844E-18
 -4.82807307E-17  2.89407674E-05  3.25003724E-17  3.58859332E-17 -7.29439777E-05
 -9.38174188E-06  1.39477120E-16 -8.59591662E-17  1.66786383E-18 -1.34876301E-16
  3.25500980E-05 -4.15285410E-17  1.17019236E-16  6.06493702E-17  1.13193965E-16
 -3.36210824E-05 -1.05969683E-16 -9.36743441E-17  5.41328401E-17 -1.30941190E-17
 -4.81351036E-17  1.56080211E-17  6.74004273E-05 -1.63124543E-04  1.69437662E-16
  1.27895349E-17 -7.12588678E-17 -1.06880113E-17  2.38929595E-06 -4.58750905E-17
  2.49871932E-17 -7.29615420E-17 -1.01434719E-16  1.19404562E-16  2.93159441E-16
 -2.62076706E-06  2.93901911E-06 -1.84416140E-05  3.24603938E-05  9.94145961E-06
  4.57499066E-05  6.95407434E-15  3.45805170E-15  4.07713342E-06  2.27044640E-16
  5.82816881E-17 -2.13730680E-05 -1.35868603E-16  3.36483347E-17  5.39812611E-05
 -7.11456693E-06 -5.59129872E-17 -5.82825664E-17  3.44429660E-17 -3.17127652E-17
  2.43250446E-05  8.98757407E-17  7.09187335E-17  8.31890349E-18 -1.04210823E-16
 -2.59488513E-05 -1.17874354E-16 -1.49191890E-18 -6.49893685E-17  2.91496763E-16
  8.78980891E-17 -5.24146355E-17 -5.04539234E-05 -1.18923036E-04  1.99389565E-16
 -8.07159151E-17 -1.45259541E-17 -2.05372094E-16 -1.75956871E-06 -6.65837555E-17
  5.07280680E-17 -2.08739429E-16  1.84696118E-16  8.56453955E-16  1.16664326E-17
 -3.12250220E-01  1.03772261E+00  3.04536052E-02 -7.75838922E-03  1.85232836E-03
 -8.48224495E-04 -2.28296173E-15 -1.96212296E-15  8.43195042E-05 -1.31428645E-16
 -1.90230404E-17  5.46367410E-06  1.41208942E-16 -7.83618400E-17  1.40005841E-05
  5.30229621E-06  1.00628201E-16 -9.08389320E-17  7.40439491E-16  1.92107545E-16
 -2.09199576E-05 -2.05021021E-16  1.66814141E-16 -4.86420173E-16 -2.64763180E-16
  5.04751310E-05  1.29829566E-16 -8.68962668E-17  7.22277935E-17  1.26576155E-16
 -1.20089652E-16  1.19565859E-16 -4.52574713E-05 -3.86785709E-05  5.25297349E-17
 -4.86454906E-17  1.21527559E-16 -2.96516894E-18 -3.92732311E-07  1.04095255E-15
  5.03269598E-16  1.47988430E-15  4.13077394E-16  2.07299946E-17 -5.11542008E-16
  3.60159905E-16 -1.70712186E-15 -1.62834354E-15  2.03205850E-15  3.14836475E-15
 -1.20241663E-14  8.83337731E-01  4.49015009E-01 -2.79011233E-11  2.23747599E-02
  1.13734562E-02 -7.08160346E-13 -4.44064427E-03 -2.25725208E-03  1.45066271E-13
  3.04345147E-16 -9.82902867E-06 -4.99625595E-06  7.57067841E-16 -7.37211050E-16
  8.98282018E-16  1.16044465E-05  5.89872985E-06 -9.93905163E-16  9.59526584E-16
 -6.36076652E-16 -2.86186245E-05 -1.45473147E-05  5.95331512E-16 -4.55732135E-16
  1.35009461E-03  6.86275161E-04 -5.12236075E-14 -8.19561419E-15  1.29364442E-04
  6.57580606E-05 -8.21729273E-17  1.55305096E-16  9.49528386E-17  1.47444262E-06
  7.49483284E-07  2.68438948E-16  1.32753099E-17 -7.58885970E-16  4.74785076E-16
  2.55766347E-15 -7.80047734E-15  1.89788750E-15 -3.96560613E-15  1.44015664E-15
  1.13602505E-14 -1.56558681E-06 -7.95813058E-07  7.76564263E-15 -2.22992791E-05
 -1.13350881E-05 -3.11693077E-15  5.80600894E-05  2.95128926E-05  8.26796352E-15
  6.68666837E-16 -5.48694434E-06 -2.78910350E-06 -6.45878232E-16 -1.66414339E-16
 -2.96741720E-15  2.27227970E-05  1.15503692E-05  4.71553942E-16  2.54388923E-16
  6.10234279E-15 -7.74802482E-05 -3.93844767E-05 -5.45873641E-16 -2.57770495E-16
 -9.37552524E-05 -4.76573274E-05 -1.52679057E-14  4.46222466E-15  2.47790085E-04
  1.25955751E-04  2.09717546E-16  1.50777320E-16  2.89283291E-16 -1.25955937E-06
 -6.40254619E-07  2.99603865E-16  3.51840067E-17 -1.89305591E-17  9.53477651E-17
 -3.20147048E-16  1.90051837E-15  3.16776615E-15 -3.85102903E-15 -1.13974583E-15
  8.66511565E-15 -4.49015009E-01  8.83337731E-01  2.18034311E-11 -1.13734562E-02
  2.23747599E-02  5.53240585E-13  2.25725208E-03 -4.44064427E-03 -1.12219051E-13
 -3.01787744E-16  4.99625595E-06 -9.82902867E-06 -2.73853514E-17  2.30682834E-16
 -3.14627363E-16 -5.89872985E-06  1.16044465E-05 -9.44415551E-17 -4.53150018E-16
  1.49367063E-15  1.45473147E-05 -2.86186245E-05  1.37519375E-16  4.25286633E-16
 -6.86275161E-04  1.35009461E-03  3.86710169E-14  5.13983503E-15 -6.57580606E-05
  1.29364442E-04  8.21644197E-17 -2.60784091E-16 -6.64006164E-18 -7.49483285E-07
  1.47444262E-06 -6.28005293E-16  3.74914075E-16  1.55493082E-16 -1.64052480E-16
 -1.50797770E-16 -1.81397346E-16 -2.25471588E-15  3.72483734E-15 -1.18459296E-16
 -9.88446720E-15  7.95813544E-07 -1.56558683E-06  1.14105403E-14  1.13350881E-05
 -2.22992791E-05  2.11988538E-15 -2.95128926E-05  5.80600894E-05 -5.98196343E-15
 -6.27026582E-16  2.78910350E-06 -5.48694434E-06 -2.57837399E-16  1.13360885E-16
  2.31992775E-15 -1.15503692E-05  2.27227970E-05 -3.19865006E-16  4.09148363E-16
 -4.41899172E-15  3.93844767E-05 -7.74802482E-05  6.55281186E-16 -2.44647671E-16
  4.76573274E-05 -9.37552524E-05  1.18056614E-14 -4.27646040E-15 -1.25955751E-04
  2.47790085E-04 -3.81681598E-16  9.87759761E-17  1.23931645E-16  6.40254619E-07
 -1.25955937E-06  2.78652162E-16  2.08415844E-16  1.26721168E-16  9.37519170E-18
 -2.22692905E-05  8.02435040E-05  1.62935795E-05 -2.12646660E-05 -1.38061588E-04
  4.44854334E-04  3.47523557E-11 -6.79357886E-12  9.90894515E-01  8.80221557E-13
 -1.71994907E-13  2.51665232E-02 -1.74766387E-13  3.41271615E-14 -5.15060435E-03
 -2.28385470E-06 -3.72827970E-16  8.40763067E-17 -2.16910670E-17  4.47819164E-17
 -2.49967065E-05  5.07747813E-16 -1.13884374E-16 -3.62092625E-17 -7.75207833E-19
  2.67305842E-05 -1.29534586E-15  2.41396671E-16  1.22086586E-16 -1.04115198E-16
  5.32172777E-14 -1.03310664E-14  1.79176901E-03  2.71631007E-04  5.35772431E-15
 -1.00090866E-15 -9.03089971E-17  8.64121720E-17  1.39307147E-06  6.63932471E-17
 -4.78841283E-17  1.27664868E-16  2.03755870E-16  2.54253965E-16 -6.51822111E-16
 -3.51487435E-06 -1.01106358E-05 -6.92015642E-05  1.31179835E-04 -1.79606921E-05
 -4.41093190E-04 -1.76501734E-14  2.39587109E-14  8.45748060E-06 -1.22937718E-15
  5.30054208E-16  1.06978726E-04  2.43412873E-15 -4.19345861E-16 -2.93511211E-04
 -2.56710483E-05 -2.33303229E-16 -1.17079403E-17 -6.76675857E-17 -1.27591717E-16
  9.95925509E-05  9.99118880E-16 -1.11509121E-16  1.70463997E-16  1.86939721E-16
 -2.08486334E-04 -3.25010297E-15  5.91594837E-16 -1.84311604E-16 -1.95640809E-16
 -3.85475456E-15  6.88185053E-16  5.39564631E-04 -1.58224913E-04  1.00129841E-14
 -1.92584544E-15  8.65942354E-17  7.26925419E-17  4.99946508E-06  6.99777540E-17
  6.50917947E-17  1.95331294E-16 -3.26530286E-16  4.26968263E-16 -3.54525217E-16
  2.06169060E-06  5.94075973E-06  4.04880584E-05 -7.72486662E-05  1.36638355E-05
  2.53103627E-04 -1.08482108E-15 -1.65627325E-14 -4.21774296E-05 -1.43171253E-15
  4.27235600E-15  6.03171659E-05  3.67639553E-15 -1.21774147E-14 -1.68900314E-04
  1.47985606E-05  3.93084650E-16 -1.09245398E-15  1.36070701E-17  1.48052056E-17
 -5.75259557E-05 -1.48410350E-15  4.59906609E-15  5.83407551E-17 -6.78984442E-17
  1.21842087E-04  4.87740443E-15 -1.59463257E-14 -1.27254800E-16  1.14820403E-16
 -5.89203578E-15  1.98246830E-14  3.12198551E-04  8.85661729E-05 -1.55437510E-14
  5.18364650E-14  3.23377357E-17 -8.71219968E-17  2.90446222E-06  1.72190814E-16
  2.09987564E-16 -9.22284785E-16 -1.49384867E-16 -5.22008849E-16  1.17738328E-16
  2.77767678E-05 -9.47395539E-05  2.33730840E-06  6.80520090E-06  8.27355541E-05
 -2.58182765E-04  9.47182849E-11 -3.20854059E-10  9.93450860E-01  1.73388290E-12
 -5.87339361E-12  1.82185728E-02 -3.41578712E-13  1.15659289E-12 -3.67496936E-03
  5.13558521E-06  1.07184694E-15 -3.74268673E-15  9.29025686E-17  9.29005217E-17
  1.24013141E-05 -8.48460521E-16  3.11146442E-15 -6.24096450E-18 -7.27972118E-17
 -1.36684721E-05  1.73635119E-15 -6.24019426E-15 -6.95508023E-17 -3.16154189E-17
  8.39948716E-14 -2.84005639E-13  1.03863540E-03 -1.58374037E-04 -8.06248608E-15
  2.72246837E-14  8.81870595E-17  4.64586436E-17  1.42405851E-06  4.45291115E-16
 -9.27355759E-17  2.27387682E-17  1.47764540E-16 -1.47570099E-15 -5.80051509E-16
  5.56471519E-16  2.59074997E-15  1.40934264E-14 -2.64484414E-14  6.56976482E-15
  7.98383123E-14  2.28331596E-07  9.78748536E-06 -3.69918883E-14 -3.33755396E-07
 -1.43064823E-05  1.92528736E-14  8.85794264E-07  3.79697239E-05 -5.49361623E-14
  4.18196705E-15  8.13494794E-08  3.48705946E-06  1.50781848E-15  1.11838798E-15
 -1.85539061E-14 -3.35360798E-07 -1.43752985E-05 -1.69446192E-15 -1.59413553E-15
  3.91261941E-14  1.15265963E-06  4.94089540E-05  6.33058826E-16  7.73608856E-16
 -1.43384002E-06 -6.14617998E-05  1.00906833E-13  2.82708995E-14 -3.74261707E-06
 -1.60427927E-04  7.67531384E-17 -8.96724632E-17  1.23634448E-15 -1.90813058E-08
 -8.17923437E-07  8.17467587E-16 -2.85719085E-16 -2.07945107E-16 -1.52609693E-16
  8.33725714E-15 -2.86339744E-14  1.45044731E-16  3.09133115E-15  2.64872605E-14
 -8.30616145E-14  2.31700234E-02  9.93187052E-01  3.18555444E-10  4.24129024E-04
  1.81803638E-02  5.84177946E-12 -8.35131005E-05 -3.57980347E-03 -1.17833382E-12
  2.07390511E-15  2.71159112E-07  1.16232821E-05 -3.40696224E-16 -2.61980707E-16
  3.89907450E-15 -2.32047414E-07 -9.94675240E-06 -9.02809979E-16  5.82481920E-17
 -3.85859537E-15  4.54750250E-07  1.94929479E-05  1.30729884E-15  1.97261893E-16
  2.05045610E-05  8.78931545E-04  3.32951794E-13 -5.11181059E-14 -1.96700738E-06
 -8.43161107E-05 -6.94562901E-16 -2.16973121E-16  4.26002512E-16  7.37586595E-09
  3.16167801E-07  1.70666482E-16 -1.56676099E-16  3.89600527E-16  7.34711033E-17
 -9.67998571E-17 -1.01233604E-15 -4.04907925E-15  7.79960515E-15 -1.91514719E-15
 -2.54176048E-14  9.78748556E-06 -2.28332036E-07  2.24777184E-14 -1.43064823E-05
  3.33755385E-07 -5.97998329E-15  3.79697239E-05 -8.85794262E-07  1.74838046E-14
 -9.42794754E-16  3.48705946E-06 -8.13494795E-08 -1.86936625E-16 -3.49613075E-16
  5.19805009E-15 -1.43752985E-05  3.35360798E-07  8.25135901E-16  3.67133856E-16
 -1.25033291E-14  4.94089540E-05 -1.15265963E-06 -9.42804275E-16 -2.71297780E-16