HF file generated by AutoMR of MOKIT
Stability RHF                                                         Gen
Number of atoms                            I                2
Info1-9                                    I   N=           9
           6           5           0           0           0         110
           7           1           2
Charge                                     I                0
Multiplicity                               I                1
Number of electrons                        I               48
Number of alpha electrons                  I               24
Number of beta electrons                   I               24
Number of basis functions                  I               90
Number of independent functions            I               90
Number of point charges in /Mol/           I                0
Number of translation vectors              I                0
Atomic numbers                             I   N=           2
          24          24
Nuclear charges                            R   N=           2
  2.40000000E+01  2.40000000E+01
Current cartesian coordinates              R   N=           6
  0.00000000E+00  0.00000000E+00  0.00000000E+00  0.00000000E+00  0.00000000E+00
  7.55890453E+00
Force Field                                I                0
Int Atom Types                             I   N=           2
           0           0
MM charges                                 R   N=           2
  0.00000000E+00  0.00000000E+00
Integer atomic weights                     I   N=           2
          52          52
Real atomic weights                        R   N=           2
  5.19405097E+01  5.19405097E+01
Atom fragment info                         I   N=           2
           1           2
Atom residue num                           I   N=           2
           0           0
Nuclear spins                              I   N=           2
           0           0
Nuclear ZEff                               R   N=           2
 -2.47200000E+01 -2.47200000E+01
Nuclear QMom                               R   N=           2
  0.00000000E+00  0.00000000E+00
Nuclear GFac                               R   N=           2
  0.00000000E+00  0.00000000E+00
MicOpt                                     I   N=           2
          -1          -1
Number of contracted shells                I               30
Number of primitive shells                 I               72
Pure/Cartesian d shells                    I                0
Pure/Cartesian f shells                    I                0
Highest angular momentum                   I                3
Largest degree of contraction              I                8
Shell types                                I   N=          30
           0           0           0           0           0           0
           1           1           1          -2          -2          -2
           1          -2          -3           0           0           0
           0           0           0           1           1           1
          -2          -2          -2           1          -2          -3
Number of primitives per shell             I   N=          30
           8           4           2           1           1           1
           6           3           1           4           1           1
           1           1           1           8           4           2
           1           1           1           6           3           1
           4           1           1           1           1           1
Shell to atom map                          I   N=          30
           1           1           1           1           1           1
           1           1           1           1           1           1
           1           1           1           2           2           2
           2           2           2           2           2           2
           2           2           2           2           2           2
Primitive exponents                        R   N=          72
  2.54477807E+05  3.81317971E+04  8.67529306E+03  2.45500998E+03  7.99162178E+02
  2.86900215E+02  1.11254132E+02  4.38641526E+01  2.79326692E+02  8.62747324E+01
  1.35557561E+01  5.69781128E+00  8.56365826E+00  1.39882968E+00  5.72881711E-01
  9.00961713E-02  3.41258851E-02  1.30643989E+03  3.09253114E+02  9.89962740E+01
  3.67569165E+01  1.45666571E+01  5.87399374E+00  2.28909997E+01  3.08550018E+00
  1.21323291E+00  4.49316807E-01  4.37200745E+01  1.23912427E+01  4.26394420E+00
  1.55252218E+00  5.37619295E-01  1.64931731E-01  1.20675000E-01  5.10000000E-02
  1.14700000E+00  2.54477807E+05  3.81317971E+04  8.67529306E+03  2.45500998E+03
  7.99162178E+02  2.86900215E+02  1.11254132E+02  4.38641526E+01  2.79326692E+02
  8.62747324E+01  1.35557561E+01  5.69781128E+00  8.56365826E+00  1.39882968E+00
  5.72881711E-01  9.00961713E-02  3.41258851E-02  1.30643989E+03  3.09253114E+02
  9.89962740E+01  3.67569165E+01  1.45666571E+01  5.87399374E+00  2.28909997E+01
  3.08550018E+00  1.21323291E+00  4.49316807E-01  4.37200745E+01  1.23912427E+01
  4.26394420E+00  1.55252218E+00  5.37619295E-01  1.64931731E-01  1.20675000E-01
  5.10000000E-02  1.14700000E+00
Contraction coefficients                   R   N=          72
  2.42904776E-04  1.88435236E-03  9.80095844E-03  3.98250087E-02  1.29405437E-01
  3.06290018E-01  4.34628350E-01  2.24695629E-01 -2.43633579E-02 -1.15114954E-01
  5.50922663E-01  5.36113547E-01 -3.71230177E-01  1.16811695E+00  1.00000000E+00
  1.00000000E+00  1.00000000E+00  2.82928007E-03  2.27766292E-02  1.05645619E-01
  2.99499449E-01  4.77062454E-01  2.76542344E-01 -1.94121061E-02  3.86188758E-01
  6.76239089E-01  1.00000000E+00  2.20932593E-02  1.28014388E-01  3.86529103E-01
  6.41033014E-01  1.00000000E+00  1.00000000E+00  1.00000000E+00  1.00000000E+00
  1.00000000E+00  2.42904776E-04  1.88435236E-03  9.80095844E-03  3.98250087E-02
  1.29405437E-01  3.06290018E-01  4.34628350E-01  2.24695629E-01 -2.43633579E-02
 -1.15114954E-01  5.50922663E-01  5.36113547E-01 -3.71230177E-01  1.16811695E+00
  1.00000000E+00  1.00000000E+00  1.00000000E+00  2.82928007E-03  2.27766292E-02
  1.05645619E-01  2.99499449E-01  4.77062454E-01  2.76542344E-01 -1.94121061E-02
  3.86188758E-01  6.76239089E-01  1.00000000E+00  2.20932593E-02  1.28014388E-01
  3.86529103E-01  6.41033014E-01  1.00000000E+00  1.00000000E+00  1.00000000E+00
  1.00000000E+00  1.00000000E+00
Coordinates of each shell                  R   N=          90
  0.00000000E+00  0.00000000E+00  0.00000000E+00  0.00000000E+00  0.00000000E+00
  0.00000000E+00  0.00000000E+00  0.00000000E+00  0.00000000E+00  0.00000000E+00
  0.00000000E+00  0.00000000E+00  0.00000000E+00  0.00000000E+00  0.00000000E+00
  0.00000000E+00  0.00000000E+00  0.00000000E+00  0.00000000E+00  0.00000000E+00
  0.00000000E+00  0.00000000E+00  0.00000000E+00  0.00000000E+00  0.00000000E+00
  0.00000000E+00  0.00000000E+00  0.00000000E+00  0.00000000E+00  0.00000000E+00
  0.00000000E+00  0.00000000E+00  0.00000000E+00  0.00000000E+00  0.00000000E+00
  0.00000000E+00  0.00000000E+00  0.00000000E+00  0.00000000E+00  0.00000000E+00
  0.00000000E+00  0.00000000E+00  0.00000000E+00  0.00000000E+00  0.00000000E+00
  0.00000000E+00  0.00000000E+00  7.55890453E+00  0.00000000E+00  0.00000000E+00
  7.55890453E+00  0.00000000E+00  0.00000000E+00  7.55890453E+00  0.00000000E+00
  0.00000000E+00  7.55890453E+00  0.00000000E+00  0.00000000E+00  7.55890453E+00
  0.00000000E+00  0.00000000E+00  7.55890453E+00  0.00000000E+00  0.00000000E+00
  7.55890453E+00  0.00000000E+00  0.00000000E+00  7.55890453E+00  0.00000000E+00
  0.00000000E+00  7.55890453E+00  0.00000000E+00  0.00000000E+00  7.55890453E+00
  0.00000000E+00  0.00000000E+00  7.55890453E+00  0.00000000E+00  0.00000000E+00
  7.55890453E+00  0.00000000E+00  0.00000000E+00  7.55890453E+00  0.00000000E+00
  0.00000000E+00  7.55890453E+00  0.00000000E+00  0.00000000E+00  7.55890453E+00
Constraint Structure                       R   N=           6
  0.00000000E+00  0.00000000E+00  0.00000000E+00  0.00000000E+00  0.00000000E+00
  7.55890453E+00
Num ILSW                                   I              100
ILSW                                       I   N=         100
           0           0           0           0           2           1
           0           0           0           0           0          -1
           0           0           0           0           0           0
           0           0           0           0           0           0
           1           1           0           0           0           0
           0           0      100000           0          -1           0
           0           0           0           0           0           0
           0           0           0           1           0           0
           0           0           1           0           0           0
           0           0           4          40           0           0
           0           0           0           0           0           0
           0           0           0           0           0           0
           0           0           0           0           0           0
           0           0           0           0           0           0
           0           0           0           0           0           0
           0           0           0           0           0           0
           0           0           0           0
Num RLSW                                   I               40
RLSW                                       R   N=          40
  1.00000000E+00  1.00000000E+00  1.00000000E+00  1.00000000E+00  1.00000000E+00
  0.00000000E+00  0.00000000E+00  1.00000000E+00  0.00000000E+00  0.00000000E+00
  0.00000000E+00  0.00000000E+00  1.00000000E+00  0.00000000E+00  0.00000000E+00
  0.00000000E+00  0.00000000E+00  1.00000000E+00  0.00000000E+00  0.00000000E+00
  0.00000000E+00  0.00000000E+00  1.00000000E+00  0.00000000E+00  0.00000000E+00
  0.00000000E+00  0.00000000E+00  1.00000000E+00  0.00000000E+00  0.00000000E+00
  0.00000000E+00  0.00000000E+00  1.00000000E+00  0.00000000E+00  0.00000000E+00
  0.00000000E+00  0.00000000E+00  0.00000000E+00  1.00000000E+00  1.00000000E+00
ECP-MxAtEC                                 I           250000
ECP-MaxLECP                                I               10
ECP-MaxAtL                                 I          2250000
ECP-MxTECP                                 I         11250000
ECP-LenNCZ                                 I                0
ECP-KFirst                                 I   N=          20
           0           0           0           0           0           0
           0           0           0           0           0           0
           0           0           0           0           0           0
           0           0
ECP-KLast                                  I   N=          20
           0           0           0           0           0           0
           0           0           0           0           0           0
           0           0           0           0           0           0
           0           0
ECP-LMax                                   I   N=           2
           0           0
ECP-LPSkip                                 I   N=           2
           1           1
ECP-RNFroz                                 R   N=           2
  0.00000000E+00  0.00000000E+00
ECP-NLP                                    I                0
ECP-CLP1                                   R      0.000000000000000E+00
ECP-CLP2                                   R      0.000000000000000E+00
ECP-ZLP                                    R      0.000000000000000E+00
MxBond                                     I                1
NBond                                      I   N=           2
           0           0
IBond                                      I   N=           2
           0           0
RBond                                      R   N=           2
  0.00000000E+00  0.00000000E+00
Virial Ratio                               R      2.000025260610248E+00
SCF Energy                                 R     -2.086670643535294E+03
Total Energy                               R     -2.086670643535294E+03
S**2                                       R      5.898514692580861E+00
S**2 after annihilation                    R      1.824398861277378E+01
RMS Density                                R      1.915882148184216E-09
External E-field                           R   N=          35
  0.00000000E+00  0.00000000E+00  0.00000000E+00  0.00000000E+00  0.00000000E+00
  0.00000000E+00  0.00000000E+00  0.00000000E+00  0.00000000E+00  0.00000000E+00
  0.00000000E+00  0.00000000E+00  0.00000000E+00  0.00000000E+00  0.00000000E+00
  0.00000000E+00  0.00000000E+00  0.00000000E+00  0.00000000E+00  0.00000000E+00
  0.00000000E+00  0.00000000E+00  0.00000000E+00  0.00000000E+00  0.00000000E+00
  0.00000000E+00  0.00000000E+00  0.00000000E+00  0.00000000E+00  0.00000000E+00
  0.00000000E+00  0.00000000E+00  0.00000000E+00  0.00000000E+00  0.00000000E+00
IOpCl                                      I                0
IROHF                                      I                0
Alpha Orbital Energies                     R   N=          90
  2.00000000E+00  2.00000000E+00  2.00000000E+00  2.00000000E+00  2.00000000E+00
  2.00000000E+00  2.00000000E+00  2.00000000E+00  2.00000000E+00  2.00000000E+00
  2.00000000E+00  2.00000000E+00  2.00000000E+00  2.00000000E+00  2.00000000E+00
  2.00000000E+00  2.00000000E+00  2.00000000E+00  1.37948948E+00  1.01497473E+00
  1.01431238E+00  1.01431236E+00  1.00243626E+00  1.00243625E+00  9.97563748E-01
  9.97563744E-01  9.85687765E-01  9.85687744E-01  9.85062533E-01  6.20473002E-01
  0.00000000E+00  0.00000000E+00  0.00000000E+00  0.00000000E+00  0.00000000E+00
  0.00000000E+00  0.00000000E+00  0.00000000E+00  0.00000000E+00  0.00000000E+00
  0.00000000E+00  0.00000000E+00  0.00000000E+00  0.00000000E+00  0.00000000E+00
  0.00000000E+00  0.00000000E+00  0.00000000E+00  0.00000000E+00  0.00000000E+00
  0.00000000E+00  0.00000000E+00  0.00000000E+00  0.00000000E+00  0.00000000E+00
  0.00000000E+00  0.00000000E+00  0.00000000E+00  0.00000000E+00  0.00000000E+00
  0.00000000E+00  0.00000000E+00  0.00000000E+00  0.00000000E+00  0.00000000E+00
  0.00000000E+00  0.00000000E+00  0.00000000E+00  0.00000000E+00  0.00000000E+00
  0.00000000E+00  0.00000000E+00  0.00000000E+00  0.00000000E+00  0.00000000E+00
  0.00000000E+00  0.00000000E+00  0.00000000E+00  0.00000000E+00  0.00000000E+00
  0.00000000E+00  0.00000000E+00  0.00000000E+00  0.00000000E+00  0.00000000E+00
  0.00000000E+00  0.00000000E+00  0.00000000E+00  0.00000000E+00  0.00000000E+00
Alpha MO coefficients                      R   N=        8100
 -4.79057373E-02 -3.33592475E-04  1.13967118E-04 -7.88566743E-05  1.87674720E-05
 -2.23031539E-05 -1.11532962E-14  1.45073803E-14 -1.20597520E-06 -2.93939958E-13
 -7.11514446E-15  5.99264847E-06  4.70141247E-13  1.90383103E-13 -1.47111267E-05
  2.03064514E-06 -9.67078385E-14 -2.92363426E-12 -4.39551492E-15 -1.45387132E-14
 -6.68155990E-06 -1.15270963E-13 -2.22326184E-12  1.49830524E-15 -5.36265552E-16
  6.58616706E-06 -4.46242810E-14  1.95118415E-13 -7.10979061E-15 -6.29396974E-15
 -2.63451205E-13 -1.01522253E-13  1.33192562E-05  3.17496014E-05 -2.19733117E-13
  4.06040300E-13  1.79150778E-14 -1.91478209E-13  5.12783727E-07  1.61509625E-14
  3.70586135E-14  1.28120618E-14  1.18802505E-13  1.72196234E-14 -1.05033611E-14
  9.96666896E-01  6.95402612E-03 -2.26759705E-03  1.46771642E-03 -4.65078977E-04
  2.21080930E-04 -3.41847667E-12  8.32437189E-13  4.95617405E-07  1.75479512E-12
 -1.20466418E-12  1.55994373E-06 -1.62003030E-12  4.29923747E-12 -5.16686672E-06
 -1.67528696E-06  3.17242413E-12  5.56888116E-13  1.74835044E-14  1.48103631E-13
  6.09634420E-06  2.34512804E-12  4.17310738E-13  7.40274475E-15 -4.08703087E-14
 -1.39880369E-05  1.27272867E-12  8.48803323E-12 -6.89521534E-15 -1.23373500E-12
  5.98451168E-13 -1.34228078E-12  1.28287143E-05  9.31164011E-06  4.89199188E-14
  1.41788545E-12 -3.44577487E-14 -9.72156446E-12  1.11428050E-07 -5.52534812E-14
 -5.58873243E-13  1.76645907E-15  3.18956541E-12  1.06720076E-13 -1.77833294E-14
  9.96666921E-01  6.95409015E-03 -2.26711785E-03  1.46691570E-03 -4.65424560E-04
  2.19955724E-04  2.56079898E-13 -9.11186931E-13 -6.14099418E-07  5.71543990E-12
  2.47488965E-12 -9.89815521E-07 -8.59734328E-12 -5.16961439E-12  3.77341027E-06
 -1.48734994E-06 -4.33420185E-12 -5.36473618E-13  8.75311121E-14  1.45528602E-13
  5.48073758E-06 -3.26040669E-12 -4.15212127E-13 -3.00391275E-14 -8.91284252E-14
 -1.34181757E-05 -2.06641308E-12 -8.56309039E-12  1.08388323E-14  5.43848634E-14
  4.19744461E-12  2.87380554E-12 -1.16048308E-05  1.24139295E-05  9.77521584E-13
 -4.43595268E-13 -4.12145878E-15 -9.61367033E-12 -6.25355387E-08 -1.39830451E-13
 -7.96396183E-13 -1.40586903E-14 -2.99334674E-12 -2.11326045E-16 -1.23429731E-13
  4.79062482E-02  3.34917726E-04 -1.04000119E-04  6.22007828E-05 -2.59586658E-05
 -1.10396987E-06  7.38196946E-15 -1.88890677E-12  1.25933784E-06 -6.25556335E-12
 -3.21539239E-12 -5.87018415E-06  9.04541053E-12  6.03462941E-12  1.42815265E-05
  1.87858790E-06  5.25105809E-13 -2.84574010E-12  4.45336458E-16  6.05724592E-15
 -6.12503511E-06  3.96370341E-13 -2.17675156E-12  2.91120114E-15 -8.02211926E-15
  5.26880483E-06 -8.55103356E-14  2.83142599E-13 -5.72324087E-15  6.63014039E-12
 -4.27695835E-12 -2.94708850E-12 -1.21448864E-05  3.27939606E-05  1.27017121E-12
  8.20621491E-13  6.20011341E-14 -1.12978828E-12 -5.04419066E-07  5.71705245E-14
  2.30914435E-15  1.83859953E-15  1.14484562E-13  1.89556740E-14 -1.35703835E-14
 -1.34182304E-01  4.46030636E-01  1.42801821E-02 -3.73099109E-03  9.45717996E-04
 -4.67233629E-04  1.11556166E-12  1.20912083E-13 -5.82580414E-05 -1.71556661E-15
 -1.14454844E-13  2.24629574E-05  1.86415262E-14  1.99292748E-14 -6.30563029E-05
  4.31803416E-06  9.04338452E-14  3.86141038E-13  2.70729805E-12  2.92940527E-12
 -3.95468312E-05  1.11794318E-14 -3.04113671E-14 -4.37563376E-13  4.58059500E-14
  4.94311995E-05  4.88746169E-14  1.51107337E-13  6.83842697E-13  1.38091939E-12
 -1.46405730E-14 -1.03408460E-14  7.42390064E-05  1.07046038E-04 -6.51112634E-15
 -1.77798734E-14  1.76927679E-14 -1.89397359E-14  1.80067652E-06  2.08995451E-12
  8.64063349E-15  6.14157973E-14  1.18952319E-13 -2.33907065E-13 -1.17635319E-12
  2.81621587E-01 -9.36119012E-01 -2.99168124E-02  7.80588280E-03 -2.05800453E-03
  8.41432336E-04  2.45696273E-12 -2.74273958E-11 -1.13030485E-04  2.26259092E-12
 -6.97726006E-12  4.96201423E-06  5.81895651E-13 -3.23077097E-12 -4.20575869E-05
 -6.89659787E-06  8.86011991E-14  7.99339874E-13 -2.20486025E-12 -9.16674450E-12
  3.46972067E-05  1.56158584E-14 -1.03730262E-13 -1.37141301E-13  1.14965044E-12
 -6.61662261E-05  3.30417890E-14  2.62740287E-13 -5.39144500E-13 -2.13195908E-12
 -2.97456282E-12 -1.49603400E-13  7.50735704E-05 -1.88004866E-05 -1.55454444E-14
 -5.44144771E-14  1.35757726E-13  1.93300260E-13  8.24506340E-07 -1.26997067E-15
 -2.98718186E-14  1.27226837E-13  2.68116593E-13 -3.20796025E-12 -3.89652604E-12
 -2.81624232E-01  9.36122332E-01  2.98851388E-02 -7.79143521E-03  2.10098638E-03
 -7.59679391E-04  2.34011668E-12  2.62348872E-13 -1.07603719E-04 -2.59033020E-14
 -2.36747147E-13 -1.98161757E-05  2.94241461E-14  4.04217317E-14  1.09749823E-05
  5.62425685E-06  1.11511339E-13  7.52732518E-13  4.84074281E-12  4.05816276E-12
 -6.32407904E-06 -3.08068837E-14 -1.03198365E-13 -1.67731454E-12 -1.36003314E-12
  4.40927200E-05  2.44728276E-14  2.35559529E-13  8.94324230E-13  1.57537006E-12
 -2.84643083E-14 -2.67483854E-15  2.76483485E-05 -1.02125597E-04 -1.41765559E-14
 -4.73155307E-14 -2.36770839E-13 -2.47963620E-13 -9.11090315E-07  2.40091542E-12
  1.75535219E-14  1.60554326E-13  2.76074840E-13 -2.66411541E-13 -4.48296083E-12
 -1.34187857E-01  4.46037611E-01  1.42136971E-02 -3.70067328E-03  1.03591957E-03
 -2.95649193E-04 -3.75920934E-12 -2.33893817E-11  4.68676669E-05 -2.72841547E-12
 -5.37623242E-12  2.95405878E-05 -8.41037762E-13 -2.52658813E-12 -4.82465443E-05
  1.64829280E-06 -1.06476794E-14 -3.80658608E-13  2.70296633E-14  2.51244420E-12
  2.00005982E-05  1.47263317E-14  4.59981015E-14 -5.41089468E-13 -1.85159261E-12
  3.10417923E-06  2.77710261E-15 -8.40620487E-14 -2.74681839E-13 -9.86570233E-14
  3.58200776E-12 -1.17046561E-13  2.52952210E-05 -1.46747919E-04  2.63927356E-15
  3.88669109E-14 -2.31252428E-13 -3.24294028E-13  1.84189930E-06  1.49216359E-15
  1.46937856E-14 -5.95646521E-14 -1.26229641E-13 -2.64764279E-12 -3.21047376E-12
 -1.32991691E-11  3.66021766E-11 -3.42324504E-12  1.13887297E-11 -5.81864666E-12
 -3.02333273E-11  8.00170145E-02 -2.06310232E-01  2.16765260E-08  1.75062147E-03
 -4.51381043E-03  4.64709839E-10 -3.63620924E-04  9.37879824E-04 -7.23946604E-11
 -2.86886304E-12 -2.76117595E-06  7.14281702E-06 -1.38950495E-14 -7.07018199E-13
  7.45757022E-12  8.27924741E-06 -2.14866550E-05  1.65867431E-14  2.16831321E-12
 -1.69899123E-11 -2.59522299E-05  6.73682229E-05  1.01474406E-15 -7.12439179E-12
  1.25737588E-04 -3.24753243E-04 -1.34987472E-11 -8.16061199E-12  8.61112586E-05
 -2.23497766E-04  1.32462907E-15 -1.63623566E-12 -3.58334574E-13  4.74147449E-07
 -1.22997076E-06  1.02480648E-14 -1.46469544E-12  1.53361939E-13 -7.03849135E-14
  2.85696872E-12 -4.36053966E-12 -1.17392900E-12  1.15285759E-12 -1.25553673E-11
  2.84013115E-11 -3.47494555E-01  9.02623604E-01 -1.03366349E-07 -7.57402332E-03
  1.96736330E-02 -2.25596534E-09  1.50472631E-03 -3.90847620E-03  4.55058566E-10
 -1.80766728E-12 -6.93123681E-06  1.79985568E-05 -3.64432301E-14 -2.05058760E-14
 -2.32208927E-13  5.93867387E-06 -1.53935681E-05 -6.67582173E-15 -2.20506042E-14
 -1.78719450E-12 -1.52344779E-05  3.94670957E-05 -1.18631365E-14 -1.89148587E-12
 -4.25813775E-04  1.10593015E-03 -1.38054737E-10  1.97134873E-11  5.79890051E-05
 -1.50288010E-04 -2.31116357E-15  2.48877577E-12  1.71649765E-14 -4.59618865E-07
  1.19214028E-06  3.19029000E-14 -5.18580160E-12 -1.09144076E-12  1.22971153E-12
 -7.81651164E-12  1.65967769E-11 -3.90709926E-12  1.08736208E-11 -3.66566653E-12
 -3.36265369E-11 -1.90123614E-01 -9.04645904E-02  4.56794110E-09 -4.16115220E-03
 -1.97823917E-03  9.16550398E-11  8.68165451E-04  4.08606501E-04  2.10527159E-12
 -2.50630248E-12  6.84556118E-06  2.95229865E-06 -1.02761730E-14 -3.41114566E-12
  7.21328329E-12 -2.13620303E-05 -8.35534705E-06 -2.96425365E-15 -2.95060875E-12
 -1.61127977E-11  6.71521649E-05  2.60775840E-05 -2.74083440E-15  2.75830581E-13
 -3.05527520E-04 -1.38129099E-04 -3.48409844E-11 -1.09968445E-11 -2.22396494E-04
 -8.67762339E-05  8.49978846E-16  1.24093056E-12 -3.69893382E-13 -1.21666181E-06
 -4.82506907E-07  7.88715763E-15  3.94744412E-13  1.26123008E-13  2.54310936E-13
 -5.72026839E-12  1.15147877E-11  3.42163585E-13 -4.06060378E-13 -1.11598506E-11
  3.22020115E-11  9.06133106E-01  3.45022618E-01 -9.62400916E-08  1.97497873E-02
  7.52036295E-03 -2.10176688E-09 -3.92278867E-03 -1.49459629E-03  4.27329314E-10
 -1.29679080E-12  1.80083808E-05  6.92094364E-06  4.62415195E-14  2.61461718E-14
 -1.37497265E-12 -1.50966015E-05 -6.12783606E-06 -2.10662721E-14  6.76567292E-15
  9.64327166E-13  3.84618329E-05  1.58774777E-05  1.42324866E-14  3.71583889E-13
  1.10880068E-03  4.23711563E-04 -1.35243719E-10  2.03191729E-11 -1.47115973E-04
 -6.00122135E-05 -1.07153400E-15 -2.21127437E-12 -7.15621763E-14  1.17775968E-06
  4.68680415E-07  1.95040310E-14  2.95563785E-12 -1.30729986E-12 -7.03961968E-13
 -1.04761940E-11  3.18980499E-11  5.09133914E-12 -1.01414589E-11 -1.68136333E-11
  8.61657353E-11 -5.96685326E-01  7.62520040E-01  1.68521233E-07 -1.30003075E-02
  1.66128302E-02  3.68718991E-09  2.57046499E-03 -3.28327280E-03 -7.67203605E-10
 -1.12614511E-13  1.09964559E-05 -1.39444452E-05  5.77751851E-14 -2.15143144E-13
 -8.54575053E-12 -4.82783392E-06  5.52769647E-06 -3.71307711E-14 -4.28866255E-12
  1.54471973E-11  8.72312975E-06 -9.06303274E-06  1.24402713E-14  3.24264467E-12
 -7.09659171E-04  9.04320387E-04  2.71774243E-10  4.56955868E-11 -4.30501055E-05
  4.82574873E-05 -3.52207220E-15 -2.53997029E-12  4.50405205E-13 -5.03081433E-07
  6.08690655E-07 -2.07506675E-14  4.67168486E-12 -5.04871372E-13  6.39743466E-13
  4.15006497E-12 -1.56310226E-11 -9.01926530E-12  1.98137612E-11  2.82386564E-12
 -8.74749169E-11 -1.18244097E-01  1.81668609E-01  7.33489725E-08 -2.56481460E-03
  3.94362305E-03  1.61647363E-09  4.79543051E-04 -7.44792264E-04 -3.65759518E-10
 -3.37569854E-12 -1.49439196E-07  7.75640773E-07  2.06986228E-15  2.57317012E-14
  1.40842631E-11 -1.10838195E-05  1.37898255E-05 -6.04698700E-16 -2.49125355E-14
 -2.96871489E-11  3.73701699E-05 -4.68964380E-05 -8.67274158E-17  2.90956447E-12
 -9.24012211E-05  1.54939788E-04  1.76955909E-10 -3.68958011E-11 -1.18217009E-04
  1.47528460E-04  4.42777279E-16 -4.61847968E-12  7.70321899E-13  5.41918176E-07
 -6.59989960E-07  1.18681285E-14 -7.51229881E-13 -1.74150884E-13  2.94627968E-13
 -4.93136129E-12  1.70557470E-11 -1.47632910E-12  3.83068459E-12 -1.30714516E-11
  1.96034003E-11  7.65420705E-01  5.93521169E-01  1.02182979E-07  1.66762894E-02
  1.29310639E-02  2.22822032E-09 -3.29644733E-03 -2.55603360E-03 -4.44400973E-10
 -2.31566047E-12 -1.40439655E-05 -1.08838223E-05  4.35185628E-14  1.58539286E-13
  1.54694602E-12  5.82439223E-06  4.47995867E-06 -1.23293509E-14  1.86497303E-13
 -5.66895689E-12 -9.99271752E-06 -7.63035363E-06  9.28987372E-15 -2.17270969E-12
  9.08865651E-04  7.04604632E-04  1.26473403E-10  1.66099321E-11  5.13431906E-05
  3.94292516E-05 -1.64793103E-15  5.26668512E-13 -1.00401857E-13  6.25694926E-07
  4.83241009E-07 -2.87490996E-14 -4.16795992E-12 -6.42959984E-13 -1.03585409E-12
 -1.91979399E-12  3.46648349E-12 -4.86004574E-12  1.10001732E-11 -8.41162451E-12
 -2.16551950E-11  1.69235365E-01  1.32960466E-01 -4.47010410E-08  3.67262522E-03
  2.88556988E-03 -9.67717684E-10 -6.90950788E-04 -5.43256625E-04  1.75161121E-10
 -3.11182226E-12  5.27512472E-07  4.42176556E-07  3.89083357E-15  1.46380856E-14
  6.95432414E-12  1.40031065E-05  1.08370336E-05 -7.87735483E-15  8.85862395E-15
 -1.63908788E-11 -4.74441543E-05 -3.67402749E-05  8.95356739E-16  2.18729418E-13
  1.39700475E-04  1.10415775E-04 -1.98130402E-11 -3.02408281E-12  1.49611913E-04
  1.15810712E-04  1.03960414E-16  2.26413132E-12  3.57493089E-13 -6.76476253E-07
 -5.22705906E-07  1.01116462E-14  1.20264876E-12 -3.46087787E-13 -6.75340769E-14
 -1.96473104E-05  8.24853151E-05  4.47201246E-05 -9.99238011E-05 -3.46820636E-05
  4.95286148E-04  6.91504232E-08 -1.51892995E-07  5.43797194E-01  1.50563078E-09
 -3.31126859E-09  1.19483645E-02 -2.95482099E-10  6.59215107E-10 -2.61392027E-03
  1.45789599E-05 -1.14087900E-12  3.08577088E-12 -4.56776306E-13 -6.75158502E-13
 -7.25615946E-05 -4.10805550E-13 -3.20424373E-12  7.15939541E-15  2.95894869E-13
  1.49592202E-04  2.14608985E-12  8.63967348E-12 -2.39960238E-13 -2.24071480E-13
  7.83228275E-11 -1.88571930E-10  1.13181263E-03  2.21334681E-04 -5.30305775E-12
 -3.18002771E-11 -1.26838188E-13  9.05457551E-12  3.98959701E-06  1.38889614E-12
 -2.86538049E-13  1.23938176E-13 -1.49128568E-13  7.05452110E-14  1.36797770E-15
  3.14805592E-05 -1.18197305E-04 -3.23629195E-05  7.10094067E-05  7.67962461E-05
 -4.91190641E-04  6.02541643E-08  6.43261179E-08  8.29870457E-01  1.31160554E-09
  1.40475202E-09  1.81728867E-02 -2.56602260E-10 -2.85651294E-10 -3.82050758E-03
 -3.90971973E-06  9.30712701E-13  1.72420236E-12  6.70549924E-14  1.22905655E-12
  5.60006513E-05  7.56389372E-13 -3.99576240E-12 -2.39229452E-13 -2.43975421E-13
 -1.06625018E-04 -3.01755884E-12  1.21486556E-11 -1.79520490E-13  3.67160407E-13
  6.68654129E-11  9.03275880E-11  1.41668031E-03 -2.47807989E-04  8.29980080E-12
 -4.10202981E-11 -1.69081701E-13 -6.53766263E-12  3.22026781E-06 -5.56093683E-15
  3.05311540E-13 -1.46828534E-13  1.82991049E-13  1.61199861E-12 -2.92952729E-15
  3.37353308E-05 -1.06640685E-04  2.16432001E-05 -5.16244630E-05  1.12722541E-04
 -9.28825372E-05  1.94347000E-08  1.22503566E-07 -8.29888894E-01  4.22844344E-10
  2.66716581E-09 -1.80813264E-02 -8.22382258E-11 -5.22636511E-10  3.56695346E-03
  2.36912029E-05 -2.03070335E-13 -1.79990396E-12  9.85666734E-13  1.51877427E-12
 -2.63758694E-05 -4.40171085E-13 -1.03479125E-12  2.48804723E-13 -1.06603110E-13
  7.64847813E-05  1.67755735E-12  4.81784418E-12  6.59905609E-13  4.48119907E-13
  2.07330604E-11  1.37547911E-10 -9.49319536E-04 -1.12410669E-04 -4.88525868E-12
 -1.25242280E-11  3.03628363E-14  4.95556379E-12  1.09640804E-06  4.33496439E-12
  6.08766309E-14 -1.85516750E-13  2.19433213E-13  1.44310417E-12 -3.05772290E-15
  2.30879812E-05 -6.48486762E-05  3.76956711E-05 -8.72209940E-05  8.95075153E-05
  1.12548913E-04  3.22200486E-08  1.20887859E-07  5.43825334E-01  7.01750297E-10
  2.63189840E-09  1.18086334E-02 -1.38114023E-10 -5.15614867E-10 -2.22700342E-03
  2.75416654E-05  5.64823077E-13  1.82353810E-12  6.61415423E-13  9.34649816E-13
 -5.31489656E-05  1.75835813E-13  1.06866463E-12  1.78691148E-13 -6.22609433E-14
  1.29841467E-04 -4.10406422E-13 -4.96842925E-12  3.33621487E-13  2.35239800E-13
  3.72392233E-11  1.35472155E-10  4.18601554E-04 -1.47127196E-05  5.59761282E-13
  1.30539651E-11  3.49304497E-14  8.11829905E-12 -2.59786118E-06  3.56939950E-14
  2.61381471E-14 -9.42214686E-14  1.30284911E-13  5.83626341E-12 -3.49741094E-15
  6.15566399E-02 -2.44038383E-01  3.48846504E-01  2.57906868E-01  8.07376686E-03
 -2.57143114E-03  3.92992652E-14 -2.59215457E-13  1.72683008E-04 -2.37043162E-14
  7.58657011E-13 -3.88701548E-04  5.72685067E-13 -4.29950539E-13 -1.36112628E-04
  1.07219214E-07 -6.59992693E-13 -1.83218077E-12 -8.44172089E-12 -3.81833297E-11
  1.23126698E-05 -2.46157969E-13 -1.88574357E-12 -1.77152420E-11 -1.81980963E-11
 -4.27138167E-05 -3.77202761E-13 -2.12341004E-12  1.29931993E-12 -1.43709340E-11
  1.77763347E-15  2.74016666E-13 -1.13488791E-04 -4.82263185E-04 -1.07731365E-13