HF file generated by AutoMR of MOKIT
Stability RHF                                                         Gen
Number of atoms                            I                2
Info1-9                                    I   N=           9
           6           5           0           0           0         110
           7           1           2
Charge                                     I                0
Multiplicity                               I                1
Number of electrons                        I               48
Number of alpha electrons                  I               24
Number of beta electrons                   I               24
Number of basis functions                  I               90
Number of independent functions            I               90
Number of point charges in /Mol/           I                0
Number of translation vectors              I                0
Atomic numbers                             I   N=           2
          24          24
Nuclear charges                            R   N=           2
  2.40000000E+01  2.40000000E+01
Current cartesian coordinates              R   N=           6
  0.00000000E+00  0.00000000E+00  0.00000000E+00  0.00000000E+00  0.00000000E+00
  7.55890453E+00
Force Field                                I                0
Int Atom Types                             I   N=           2
           0           0
MM charges                                 R   N=           2
  0.00000000E+00  0.00000000E+00
Integer atomic weights                     I   N=           2
          52          52
Real atomic weights                        R   N=           2
  5.19405097E+01  5.19405097E+01
Atom fragment info                         I   N=           2
           1           2
Atom residue num                           I   N=           2
           0           0
Nuclear spins                              I   N=           2
           0           0
Nuclear ZEff                               R   N=           2
 -2.47200000E+01 -2.47200000E+01
Nuclear QMom                               R   N=           2
  0.00000000E+00  0.00000000E+00
Nuclear GFac                               R   N=           2
  0.00000000E+00  0.00000000E+00
MicOpt                                     I   N=           2
          -1          -1
Number of contracted shells                I               30
Number of primitive shells                 I               72
Pure/Cartesian d shells                    I                0
Pure/Cartesian f shells                    I                0
Highest angular momentum                   I                3
Largest degree of contraction              I                8
Shell types                                I   N=          30
           0           0           0           0           0           0
           1           1           1          -2          -2          -2
           1          -2          -3           0           0           0
           0           0           0           1           1           1
          -2          -2          -2           1          -2          -3
Number of primitives per shell             I   N=          30
           8           4           2           1           1           1
           6           3           1           4           1           1
           1           1           1           8           4           2
           1           1           1           6           3           1
           4           1           1           1           1           1
Shell to atom map                          I   N=          30
           1           1           1           1           1           1
           1           1           1           1           1           1
           1           1           1           2           2           2
           2           2           2           2           2           2
           2           2           2           2           2           2
Primitive exponents                        R   N=          72
  2.54477807E+05  3.81317971E+04  8.67529306E+03  2.45500998E+03  7.99162178E+02
  2.86900215E+02  1.11254132E+02  4.38641526E+01  2.79326692E+02  8.62747324E+01
  1.35557561E+01  5.69781128E+00  8.56365826E+00  1.39882968E+00  5.72881711E-01
  9.00961713E-02  3.41258851E-02  1.30643989E+03  3.09253114E+02  9.89962740E+01
  3.67569165E+01  1.45666571E+01  5.87399374E+00  2.28909997E+01  3.08550018E+00
  1.21323291E+00  4.49316807E-01  4.37200745E+01  1.23912427E+01  4.26394420E+00
  1.55252218E+00  5.37619295E-01  1.64931731E-01  1.20675000E-01  5.10000000E-02
  1.14700000E+00  2.54477807E+05  3.81317971E+04  8.67529306E+03  2.45500998E+03
  7.99162178E+02  2.86900215E+02  1.11254132E+02  4.38641526E+01  2.79326692E+02
  8.62747324E+01  1.35557561E+01  5.69781128E+00  8.56365826E+00  1.39882968E+00
  5.72881711E-01  9.00961713E-02  3.41258851E-02  1.30643989E+03  3.09253114E+02
  9.89962740E+01  3.67569165E+01  1.45666571E+01  5.87399374E+00  2.28909997E+01
  3.08550018E+00  1.21323291E+00  4.49316807E-01  4.37200745E+01  1.23912427E+01
  4.26394420E+00  1.55252218E+00  5.37619295E-01  1.64931731E-01  1.20675000E-01
  5.10000000E-02  1.14700000E+00
Contraction coefficients                   R   N=          72
  2.42904776E-04  1.88435236E-03  9.80095844E-03  3.98250087E-02  1.29405437E-01
  3.06290018E-01  4.34628350E-01  2.24695629E-01 -2.43633579E-02 -1.15114954E-01
  5.50922663E-01  5.36113547E-01 -3.71230177E-01  1.16811695E+00  1.00000000E+00
  1.00000000E+00  1.00000000E+00  2.82928007E-03  2.27766292E-02  1.05645619E-01
  2.99499449E-01  4.77062454E-01  2.76542344E-01 -1.94121061E-02  3.86188758E-01
  6.76239089E-01  1.00000000E+00  2.20932593E-02  1.28014388E-01  3.86529103E-01
  6.41033014E-01  1.00000000E+00  1.00000000E+00  1.00000000E+00  1.00000000E+00
  1.00000000E+00  2.42904776E-04  1.88435236E-03  9.80095844E-03  3.98250087E-02
  1.29405437E-01  3.06290018E-01  4.34628350E-01  2.24695629E-01 -2.43633579E-02
 -1.15114954E-01  5.50922663E-01  5.36113547E-01 -3.71230177E-01  1.16811695E+00
  1.00000000E+00  1.00000000E+00  1.00000000E+00  2.82928007E-03  2.27766292E-02
  1.05645619E-01  2.99499449E-01  4.77062454E-01  2.76542344E-01 -1.94121061E-02
  3.86188758E-01  6.76239089E-01  1.00000000E+00  2.20932593E-02  1.28014388E-01
  3.86529103E-01  6.41033014E-01  1.00000000E+00  1.00000000E+00  1.00000000E+00
  1.00000000E+00  1.00000000E+00
Coordinates of each shell                  R   N=          90
  0.00000000E+00  0.00000000E+00  0.00000000E+00  0.00000000E+00  0.00000000E+00
  0.00000000E+00  0.00000000E+00  0.00000000E+00  0.00000000E+00  0.00000000E+00
  0.00000000E+00  0.00000000E+00  0.00000000E+00  0.00000000E+00  0.00000000E+00
  0.00000000E+00  0.00000000E+00  0.00000000E+00  0.00000000E+00  0.00000000E+00
  0.00000000E+00  0.00000000E+00  0.00000000E+00  0.00000000E+00  0.00000000E+00
  0.00000000E+00  0.00000000E+00  0.00000000E+00  0.00000000E+00  0.00000000E+00
  0.00000000E+00  0.00000000E+00  0.00000000E+00  0.00000000E+00  0.00000000E+00
  0.00000000E+00  0.00000000E+00  0.00000000E+00  0.00000000E+00  0.00000000E+00
  0.00000000E+00  0.00000000E+00  0.00000000E+00  0.00000000E+00  0.00000000E+00
  0.00000000E+00  0.00000000E+00  7.55890453E+00  0.00000000E+00  0.00000000E+00
  7.55890453E+00  0.00000000E+00  0.00000000E+00  7.55890453E+00  0.00000000E+00
  0.00000000E+00  7.55890453E+00  0.00000000E+00  0.00000000E+00  7.55890453E+00
  0.00000000E+00  0.00000000E+00  7.55890453E+00  0.00000000E+00  0.00000000E+00
  7.55890453E+00  0.00000000E+00  0.00000000E+00  7.55890453E+00  0.00000000E+00
  0.00000000E+00  7.55890453E+00  0.00000000E+00  0.00000000E+00  7.55890453E+00
  0.00000000E+00  0.00000000E+00  7.55890453E+00  0.00000000E+00  0.00000000E+00
  7.55890453E+00  0.00000000E+00  0.00000000E+00  7.55890453E+00  0.00000000E+00
  0.00000000E+00  7.55890453E+00  0.00000000E+00  0.00000000E+00  7.55890453E+00
Constraint Structure                       R   N=           6
  0.00000000E+00  0.00000000E+00  0.00000000E+00  0.00000000E+00  0.00000000E+00
  7.55890453E+00
Num ILSW                                   I              100
ILSW                                       I   N=         100
           0           0           0           0           2           1
           0           0           0           0           0          -1
           0           0           0           0           0           0
           0           0           0           0           0           0
           1           1           0           0           0           0
           0           0      100000           0          -1           0
           0           0           0           0           0           0
           0           0           0           1           0           0
           0           0           1           0           0           0
           0           0           4          40           0           0
           0           0           0           0           0           0
           0           0           0           0           0           0
           0           0           0           0           0           0
           0           0           0           0           0           0
           0           0           0           0           0           0
           0           0           0           0           0           0
           0           0           0           0
Num RLSW                                   I               40
RLSW                                       R   N=          40
  1.00000000E+00  1.00000000E+00  1.00000000E+00  1.00000000E+00  1.00000000E+00
  0.00000000E+00  0.00000000E+00  1.00000000E+00  0.00000000E+00  0.00000000E+00
  0.00000000E+00  0.00000000E+00  1.00000000E+00  0.00000000E+00  0.00000000E+00
  0.00000000E+00  0.00000000E+00  1.00000000E+00  0.00000000E+00  0.00000000E+00
  0.00000000E+00  0.00000000E+00  1.00000000E+00  0.00000000E+00  0.00000000E+00
  0.00000000E+00  0.00000000E+00  1.00000000E+00  0.00000000E+00  0.00000000E+00
  0.00000000E+00  0.00000000E+00  1.00000000E+00  0.00000000E+00  0.00000000E+00
  0.00000000E+00  0.00000000E+00  0.00000000E+00  1.00000000E+00  1.00000000E+00
ECP-MxAtEC                                 I           250000
ECP-MaxLECP                                I               10
ECP-MaxAtL                                 I          2250000
ECP-MxTECP                                 I         11250000
ECP-LenNCZ                                 I                0
ECP-KFirst                                 I   N=          20
           0           0           0           0           0           0
           0           0           0           0           0           0
           0           0           0           0           0           0
           0           0
ECP-KLast                                  I   N=          20
           0           0           0           0           0           0
           0           0           0           0           0           0
           0           0           0           0           0           0
           0           0
ECP-LMax                                   I   N=           2
           0           0
ECP-LPSkip                                 I   N=           2
           1           1
ECP-RNFroz                                 R   N=           2
  0.00000000E+00  0.00000000E+00
ECP-NLP                                    I                0
ECP-CLP1                                   R      0.000000000000000E+00
ECP-CLP2                                   R      0.000000000000000E+00
ECP-ZLP                                    R      0.000000000000000E+00
MxBond                                     I                1
NBond                                      I   N=           2
           0           0
IBond                                      I   N=           2
           0           0
RBond                                      R   N=           2
  0.00000000E+00  0.00000000E+00
Virial Ratio                               R      2.000025260610248E+00
SCF Energy                                 R     -2.086670643535294E+03
Total Energy                               R     -2.086670643535294E+03
S**2                                       R      5.898514692580861E+00
S**2 after annihilation                    R      1.824398861277378E+01
RMS Density                                R      1.915882148184216E-09
External E-field                           R   N=          35
  0.00000000E+00  0.00000000E+00  0.00000000E+00  0.00000000E+00  0.00000000E+00
  0.00000000E+00  0.00000000E+00  0.00000000E+00  0.00000000E+00  0.00000000E+00
  0.00000000E+00  0.00000000E+00  0.00000000E+00  0.00000000E+00  0.00000000E+00
  0.00000000E+00  0.00000000E+00  0.00000000E+00  0.00000000E+00  0.00000000E+00
  0.00000000E+00  0.00000000E+00  0.00000000E+00  0.00000000E+00  0.00000000E+00
  0.00000000E+00  0.00000000E+00  0.00000000E+00  0.00000000E+00  0.00000000E+00
  0.00000000E+00  0.00000000E+00  0.00000000E+00  0.00000000E+00  0.00000000E+00
IOpCl                                      I                0
IROHF                                      I                0
Alpha Orbital Energies                     R   N=          90
  2.00000000E+00  2.00000000E+00  2.00000000E+00  2.00000000E+00  2.00000000E+00
  2.00000000E+00  2.00000000E+00  2.00000000E+00  2.00000000E+00  2.00000000E+00
  2.00000000E+00  2.00000000E+00  2.00000000E+00  2.00000000E+00  2.00000000E+00
  2.00000000E+00  2.00000000E+00  2.00000000E+00  1.37863445E+00  1.01493404E+00
  1.01431787E+00  1.01431719E+00  1.00243888E+00  1.00243822E+00  9.97561787E-01
  9.97561124E-01  9.85682941E-01  9.85682261E-01  9.85102032E-01  6.21329220E-01
  0.00000000E+00  0.00000000E+00  0.00000000E+00  0.00000000E+00  0.00000000E+00
  0.00000000E+00  0.00000000E+00  0.00000000E+00  0.00000000E+00  0.00000000E+00
  0.00000000E+00  0.00000000E+00  0.00000000E+00  0.00000000E+00  0.00000000E+00
  0.00000000E+00  0.00000000E+00  0.00000000E+00  0.00000000E+00  0.00000000E+00
  0.00000000E+00  0.00000000E+00  0.00000000E+00  0.00000000E+00  0.00000000E+00
  0.00000000E+00  0.00000000E+00  0.00000000E+00  0.00000000E+00  0.00000000E+00
  0.00000000E+00  0.00000000E+00  0.00000000E+00  0.00000000E+00  0.00000000E+00
  0.00000000E+00  0.00000000E+00  0.00000000E+00  0.00000000E+00  0.00000000E+00
  0.00000000E+00  0.00000000E+00  0.00000000E+00  0.00000000E+00  0.00000000E+00
  0.00000000E+00  0.00000000E+00  0.00000000E+00  0.00000000E+00  0.00000000E+00
  0.00000000E+00  0.00000000E+00  0.00000000E+00  0.00000000E+00  0.00000000E+00
  0.00000000E+00  0.00000000E+00  0.00000000E+00  0.00000000E+00  0.00000000E+00
Alpha MO coefficients                      R   N=        8100
 -6.13972352E-01 -4.28335817E-03  1.40069168E-03 -9.10478334E-04  2.83759391E-04
 -1.45087038E-04 -5.12867635E-12 -3.73882385E-11 -6.35685294E-07  1.02382340E-11
  2.93007827E-13  5.47006925E-06 -1.10195923E-11  9.59262298E-12 -1.41988815E-05
  2.51613183E-06 -1.19423672E-11  2.07595058E-11 -1.53473044E-11  2.88030860E-11
 -8.61918119E-06  1.60386905E-11 -7.86709862E-12  2.10663114E-11 -2.84772088E-11
  1.31186511E-05 -1.52151813E-11  7.69097371E-12 -6.01135452E-12  1.33694634E-11
  4.42581832E-14  8.75201845E-14  1.75767539E-05  1.87792266E-05  8.97263066E-12
 -1.12818449E-11  6.42366225E-12 -2.32893762E-12  4.55054523E-07 -1.18038063E-12
  4.71715851E-11 -9.68841709E-12  1.15641806E-11 -8.36317396E-12 -2.40987935E-13
  7.86560465E-01  5.48767468E-03 -1.79245778E-03  1.16312456E-03 -3.64946185E-04
  1.81248200E-04 -4.34771428E-12 -2.46583030E-12 -3.27659767E-07  5.97395624E-12
  3.94142633E-13  4.66480630E-06 -2.00050522E-12 -2.55885813E-12 -1.24635639E-05
 -2.45153353E-06  2.44952380E-11  2.35025930E-11 -6.57793032E-12  2.26284097E-11
  8.51276929E-06 -9.50286202E-12 -1.34432046E-11 -3.26693803E-12 -8.68573749E-12
 -1.44653128E-05 -5.65862186E-12  6.37920776E-12  1.96955692E-11  2.26222477E-11
 -4.39421634E-12  5.08541709E-12  1.74875899E-05 -1.13094172E-05  2.95461701E-13
  7.29260589E-12  9.04823481E-13 -1.36443923E-11  3.82059279E-07 -1.94652765E-11
  1.06202683E-11 -1.02399693E-11  1.58696935E-12 -3.06661177E-12  1.83781584E-11
  7.86560780E-01  5.48849085E-03 -1.78631541E-03  1.15286332E-03 -3.69380327E-04
  1.66828989E-04  6.67312239E-12  4.98317902E-11 -1.19089058E-06 -1.36270566E-11
 -7.48305084E-12  2.64293257E-06  1.55824584E-11 -4.56283295E-12 -5.39798203E-06
 -4.38908694E-08 -3.49248100E-12  1.61016147E-11 -7.44326850E-12 -1.94926399E-11
  6.23922877E-07 -2.72986155E-12 -7.48919250E-12 -3.39739021E-12  5.54239012E-12
 -7.16349823E-06  6.29177106E-13 -2.76248850E-12 -1.24604154E-11 -2.85979226E-12
 -3.12450931E-12  2.00436238E-12 -1.79876311E-06  2.84543661E-05  2.34385525E-12
 -7.24035050E-12  8.83069830E-12  8.25555673E-13  2.44601357E-07  3.29504028E-12
 -5.56060224E-12  8.94608587E-12 -1.51174602E-11 -9.04929672E-12 -6.12385884E-12
  6.13972756E-01  4.28440408E-03 -1.39282333E-03  8.97333408E-04 -2.89440501E-04
  1.26614666E-04 -4.39172757E-12 -1.49389945E-12  1.30950476E-06  8.40486296E-12
 -1.56693507E-12 -3.89173766E-06 -6.16433988E-12  1.76883699E-12  8.68351887E-06
  5.68268211E-07  4.58829956E-12  1.14191478E-11  5.17092624E-12  2.12717577E-11
 -1.48726283E-06 -1.11192368E-11  7.16238460E-12  5.98940386E-12  7.31888993E-12
 -3.76437587E-06  3.25718681E-12  5.85102073E-12  1.31050923E-12 -2.72777705E-12
 -2.26457265E-12  6.69688975E-14 -2.52226542E-06  3.21621166E-05 -1.04180497E-11
  1.73886228E-12  1.94608364E-12  2.07334697E-12 -3.47756240E-07 -3.66015590E-13
  6.08921622E-12  5.98319853E-12 -1.20815484E-13  6.42168267E-12 -4.06798290E-12
 -2.20032822E-01  7.31398373E-01  2.33879409E-02 -6.10503869E-03  1.58936665E-03
 -6.92750731E-04 -1.24148770E-09  8.43987026E-09 -8.99032856E-05  7.45331796E-11
  1.70127603E-09  1.46153128E-05  3.33943949E-10 -1.00378335E-09 -5.57578011E-05
  5.94688007E-06 -6.82723446E-10  4.41762278E-09 -1.35183075E-09  7.23582656E-09
 -3.94301367E-05  2.70620186E-09  5.22785055E-10  2.29302862E-09 -4.95388934E-09
  6.13002642E-05 -1.56763001E-09 -1.66315358E-09  4.84272973E-09  2.17974856E-10
 -8.34587675E-10 -1.80581761E-09  7.91437252E-05  6.70946106E-05 -1.52072061E-09
 -5.00618845E-09 -1.55476511E-09 -1.02228728E-09  1.40646792E-06 -7.39657861E-11
  5.29697359E-09 -4.10145367E-10  2.91272668E-09 -1.36707436E-09  8.24970104E-10
  2.21135134E-01 -7.35062459E-01 -2.35048416E-02  6.13550532E-03 -1.59770167E-03
  6.95558900E-04  2.26511222E-11  2.01141543E-09 -9.02925770E-05 -1.88116606E-10
  9.98497065E-10  1.44770655E-05  1.00457250E-10 -2.08682444E-09 -5.55914421E-05
 -5.97324026E-06  4.61613152E-10  5.64020066E-09 -3.44627827E-09  4.40209436E-09
  3.93933730E-05 -4.54067406E-10 -4.80767055E-09 -3.03037305E-09 -4.87163780E-09
 -6.14296815E-05 -6.55723274E-09  2.34657828E-09  7.35724544E-09  4.87794864E-09
  4.33522637E-10  2.83026552E-09  7.91495981E-05 -6.64317285E-05  8.03453119E-10
 -3.54418990E-09  3.64712776E-09 -2.60166445E-09  1.39754970E-06 -2.73250534E-09
  2.53610586E-09 -1.43953789E-09 -4.60125978E-10 -3.62721540E-10  1.21621501E-09
  2.21139466E-01 -7.35067871E-01 -2.34529231E-02  6.11164171E-03 -1.66796799E-03
  5.61818600E-04  1.29753702E-09 -8.70082939E-09  8.14329091E-05 -2.86182972E-10
 -1.01559513E-09  2.60702430E-05  2.15960392E-11  9.40375342E-10 -3.12720601E-05
 -3.90340707E-06  1.64545991E-09 -1.62280610E-09 -1.01413594E-09 -2.41067731E-09
 -7.13533368E-06 -1.00566084E-09 -5.39500150E-09 -1.99277768E-09  8.52717007E-10
 -2.51773965E-05  3.04574724E-11  2.96576558E-09  1.58882260E-11  2.72431015E-10
  7.25597801E-10 -2.58945363E-10 -1.40288755E-06  1.31843542E-04 -1.49725227E-09
 -3.18193002E-10 -2.20806031E-09 -4.11948462E-10  1.44995151E-06 -1.25188999E-09
  8.37019283E-10 -3.00947189E-10 -1.77777501E-09 -1.21666254E-09 -1.36180285E-09
  2.20037174E-01 -7.31403814E-01 -2.33357888E-02  6.08109743E-03 -1.66003147E-03
  5.58370581E-04  1.62946793E-10  2.14770798E-09 -8.09678471E-05 -7.38719478E-10
  2.97866299E-10 -2.61472596E-05  9.43865883E-10 -2.91556547E-10  3.15555941E-05
 -3.87897119E-06 -8.34099560E-10 -5.78260600E-10 -3.80789741E-09  2.08692998E-11
 -7.33161715E-06 -2.86740029E-09  1.74723486E-09  9.86063361E-10 -5.76464853E-10
 -2.48740119E-05  1.14956209E-09 -1.11419614E-09  8.20932093E-10  1.19950351E-09
 -8.98591430E-11  2.12146599E-11  1.00843206E-06  1.32179594E-04  1.01430568E-09
 -1.12047285E-10 -6.84460054E-10 -1.21592158E-09 -1.45861225E-06 -2.50838283E-10
  1.25040191E-09 -9.95142771E-10 -2.02035323E-09  2.35710582E-09 -8.97658840E-10
  1.57474250E-09 -7.42883096E-09 -5.47705461E-09  1.28117556E-08  8.36355081E-09
 -7.41587138E-08 -1.79534477E-01 -6.63882428E-01 -1.10283788E-04 -3.91603789E-03
 -1.44808065E-02 -2.41731786E-06  7.84948198E-04  2.90280639E-03  5.14260882E-07
 -5.47143329E-09  4.04801359E-06  1.50081869E-05 -1.06411158E-08  3.89937718E-09
  6.87496276E-09 -6.07434382E-06 -2.25772832E-05 -1.31225214E-09 -3.31993585E-10
 -1.84778586E-08  1.77014431E-05  6.57468454E-05 -2.16484299E-09 -8.29300544E-10
 -2.32132478E-04 -8.58744462E-04 -2.00316291E-07 -3.64688264E-08 -6.18531880E-05
 -2.29681674E-04  5.13742142E-10  1.32606300E-09 -5.97175309E-10 -3.92121571E-07
 -1.48093090E-06  2.02140455E-09 -4.44811089E-09 -4.29113025E-09 -3.62588529E-09
 -4.17990639E-09  1.69998742E-08  9.03312019E-09 -1.68099853E-08 -7.14291492E-09
  7.56996075E-08  1.85598247E-01  6.90669748E-01 -1.00627982E-04  4.04805135E-03
  1.50639920E-02 -2.20695631E-06 -8.10812204E-04 -3.01706623E-03  4.73115396E-07
 -1.67551374E-09  4.16101757E-06  1.54211369E-05  1.39475734E-11  8.90975594E-09
 -8.07733425E-09 -6.04189127E-06 -2.23384485E-05  6.40656325E-09  1.86331077E-09
  2.07273102E-08  1.74643577E-05  6.46788683E-05 -2.75900520E-09  4.29259021E-09
  2.38933253E-04  8.88787979E-04 -1.90377567E-07  3.48502386E-08 -6.12169671E-05
 -2.26871098E-04  1.73412089E-09 -4.36931865E-10 -3.49958714E-09  4.02067511E-07
  1.47879801E-06  7.64877658E-10  4.70836115E-09  2.06521661E-09  1.36347720E-09
 -2.04466061E-09  6.51622112E-09 -2.55331493E-10  3.28740610E-09 -6.80257626E-09
 -1.83931324E-09  6.79786254E-01 -1.70378217E-01  2.68349985E-05  1.48270585E-02
 -3.71668182E-03  5.82973129E-07 -2.97065935E-03  7.45861343E-04 -1.10892451E-07
 -4.49153067E-09 -1.52445972E-05  3.90721131E-06  1.46633950E-09 -1.03968194E-08
  5.24638606E-09  2.24295422E-05 -6.14388758E-06 -1.92256198E-09  2.70173379E-09
 -8.03992354E-09 -6.51198780E-05  1.80319432E-05  1.11254455E-09 -5.90525276E-09
  8.76598318E-04 -2.21821255E-04  2.26718247E-08  3.52056276E-09  2.28051123E-04
 -6.27136873E-05 -2.00380755E-09  1.58259284E-09  4.02712715E-10  1.48083382E-06
 -3.94423524E-07 -5.00964006E-09 -1.37982875E-09 -1.56279127E-10 -2.44137760E-10
 -1.31155033E-09  4.87310906E-09  2.63626751E-09 -8.15713644E-10 -5.75209949E-09
  1.89566326E-09 -6.74944684E-01  1.94307801E-01 -3.38884179E-05 -1.47216388E-02
  4.23766173E-03 -7.37167819E-07  2.94999256E-03 -8.47944253E-04  1.43980230E-07
  2.23752363E-09 -1.51841278E-05  4.27851743E-06 -3.77642305E-09 -2.92553157E-10
  4.39972522E-09  2.24796497E-05 -5.93856804E-06 -4.19887441E-10  6.12459629E-09
 -3.06656272E-09 -6.53148067E-05  1.70757775E-05  3.04732017E-10 -3.03445772E-09
 -8.71163273E-04  2.48665427E-04 -3.68257967E-08  5.71532520E-09  2.28558959E-04
 -6.02010094E-05  1.25858780E-09  7.09466763E-10  7.79868789E-10 -1.48383185E-06
  3.97956118E-07 -2.36988089E-09  4.18995041E-09 -1.77640367E-09 -5.49192992E-09
 -1.14198427E-09  5.38740155E-09  5.61600891E-09 -8.84486391E-09  1.64746886E-09
  2.10684075E-08  5.46438018E-01 -4.52207647E-01 -1.58609687E-05  1.18969628E-02
 -9.84556093E-03 -3.39492453E-07 -2.33161930E-03  1.92997877E-03  5.27553242E-08
 -1.89923845E-09 -8.41887338E-06  7.00573185E-06  5.82901940E-10 -4.31761089E-09
 -3.24259974E-09 -4.65783986E-06  3.66823988E-06 -4.75163188E-09 -2.61252277E-09
  8.95419814E-09  2.13942475E-05 -1.71300046E-05 -2.53443234E-10  1.67338327E-10
  6.13686441E-04 -5.08563639E-04  8.07969660E-09  7.08319360E-09 -5.57249686E-05
  4.42635574E-05 -7.71885805E-10 -4.52008126E-10 -4.58149161E-10 -1.65629646E-08
  6.15554031E-09 -3.50115971E-10 -4.05727403E-09  1.95773730E-10 -3.07700441E-09
  2.91424540E-09 -1.04854386E-08 -3.01604985E-09  2.33441612E-09  6.91264244E-09
 -1.69818533E-08  5.38599687E-01 -4.37360320E-01  6.86661373E-05  1.17259907E-02
 -9.52171024E-03  1.49843046E-06 -2.29735536E-03  1.86508055E-03 -3.02217247E-07
 -7.22753382E-10  8.25332867E-06 -6.66694343E-06 -8.21128393E-10 -5.64654113E-10
 -1.01467173E-09  4.91214735E-06 -4.17030604E-06  5.25310226E-09 -6.40418911E-09
 -8.12033405E-10 -2.21459880E-05  1.85631132E-05 -3.61055904E-09  4.11753635E-10
  6.03572581E-04 -4.89404893E-04  9.19137340E-08 -1.23222632E-08  5.83647682E-05
 -4.92712084E-05  2.17030441E-10 -9.67606054E-10 -4.27662093E-09 -3.37206339E-08
  3.78645025E-08  6.95288733E-10  3.02364037E-09  9.06621251E-10  5.19873344E-09
  2.34393462E-09 -7.46897793E-09  1.36633830E-09 -3.77268469E-09  1.21263445E-08
 -1.40847800E-08 -4.37624771E-01 -5.56948420E-01 -1.08812590E-04 -9.52748307E-03
 -1.21262234E-02 -2.37264133E-06  1.86623900E-03  2.37758151E-03  4.71640493E-07
 -3.59082261E-09  6.66607433E-06  8.65505494E-06 -8.93061013E-09  2.69966915E-09
  5.18883659E-10  4.16551105E-06  4.29927160E-06 -1.76422661E-09  2.36791373E-09
  5.00908976E-09 -1.85445440E-05 -2.03462551E-05 -1.48654128E-09  8.76452080E-10
 -4.89738933E-04 -6.27287370E-04 -1.29569588E-07 -1.53262151E-08  4.92082158E-05
  5.20798211E-05  2.93169775E-09  1.23673909E-09  5.62861435E-09  3.68932418E-08
 -8.32997881E-09 -4.31707835E-09  9.78491962E-10 -8.22677417E-09  2.16080766E-09
  3.17353966E-09 -9.07959825E-09  4.49136271E-09 -1.08062207E-08  9.39185482E-09
  1.88800992E-08 -4.52067787E-01 -5.27624537E-01  6.31684460E-05 -9.84250105E-03
 -1.14866150E-02  1.37147006E-06  1.92935206E-03  2.24941265E-03 -2.56968220E-07
  6.04660490E-09 -6.99723057E-06 -8.00496621E-06 -8.93797586E-10 -4.37593509E-09
 -7.30129317E-09 -3.68728663E-06 -5.26483689E-06 -3.76469644E-09 -2.52964300E-09
  1.89762720E-08  1.71537655E-05  2.31659226E-05  1.75196352E-09 -3.24402662E-09
 -5.08370793E-04 -5.89451795E-04  4.35949241E-08  4.96547651E-11 -4.43391689E-05
 -6.19599799E-05 -1.73818476E-09  1.46606768E-09  2.73716399E-09  3.78198026E-09
  5.72454809E-08 -2.34943416E-09 -2.99559670E-09 -2.07173646E-09  2.32153483E-09
 -2.57255690E-05  1.01262948E-04  3.96049222E-05 -8.77752218E-05 -5.63203414E-05
  5.03820118E-04 -5.81148989E-05 -1.01287445E-04  6.98088844E-01 -1.26675981E-06
 -2.20696285E-06  1.53080727E-02  2.50611728E-07  4.39448554E-07 -3.27165914E-03
  9.67460327E-06  4.93120522E-09 -8.74816041E-09  2.93563369E-09 -4.26767219E-09
 -6.59084147E-05 -2.66657793E-09 -5.12604581E-09 -4.45917869E-09  4.69505679E-09
  1.31419208E-04  6.26472475E-09  7.58828532E-09 -2.21696164E-09 -6.47761925E-10
 -6.83432902E-08 -1.29305019E-07  1.29813640E-03  2.39283280E-04 -5.13811508E-09
 -3.13012481E-08  3.65468063E-09  1.03787509E-09  3.68799654E-06 -1.99738648E-10
 -9.81181140E-10  2.33747277E-09  4.55318461E-11  2.44827155E-09 -5.87098363E-10
  2.60062357E-05 -1.02106477E-04 -3.92986648E-05  8.70655720E-05  5.73488141E-05
 -5.03722854E-04 -1.05066861E-05  1.04557190E-04  7.05031555E-01 -2.29721548E-07
  2.28057661E-06  1.54591225E-02  4.51498997E-08 -4.56056239E-07 -3.30092544E-03
 -9.40918934E-06 -7.19538535E-10  2.56995004E-09  1.99545032E-09 -7.90258979E-10
  6.55043246E-05 -3.63608180E-09 -3.85673317E-09  2.44710699E-09  4.15961299E-09
 -1.30372884E-04  9.33794475E-09  1.17792102E-08 -4.78035543E-09 -4.60174929E-09
 -9.49614504E-09  1.32568144E-07  1.30504474E-03 -2.39927246E-04 -1.15602749E-08
 -3.32480435E-08  9.64461909E-10  6.19968660E-09  3.67146234E-06  1.62394297E-09
 -1.10722966E-09 -1.43770917E-09  2.18741434E-09 -5.43835998E-10 -1.13300502E-09
  2.89141800E-05 -8.72802414E-05  3.01636894E-05 -7.05452807E-05  1.03578781E-04
  7.54141302E-06  5.16617937E-05  9.32010296E-05 -7.05055260E-01  1.12682794E-06
  2.02766856E-06 -1.53414497E-02 -2.24498997E-07 -3.95835694E-07  2.97526802E-03
  2.59893979E-05 -3.72423089E-09  4.03563241E-09 -2.15939323E-09  9.57395445E-10
 -4.02602883E-05  7.77874399E-10  1.24833708E-09  2.00602576E-09  3.01984399E-10
  1.04693459E-04 -3.71001839E-09  3.39972266E-09 -1.70837453E-10 -2.10774480E-09
  6.31474382E-08  1.04517446E-07 -7.05029490E-04 -6.60956306E-05  1.01296973E-08
 -9.69319655E-09  3.70644321E-09  9.64179337E-10  1.86722077E-06  1.86364750E-09
 -2.76942376E-10 -1.32466079E-09  1.64151800E-09  2.61577445E-11  1.41607499E-10
  2.86534232E-05 -8.62583743E-05  3.05538585E-05 -7.14096754E-05  1.03014899E-04
  1.25294297E-05 -7.47065739E-06  9.41540707E-05  6.98112794E-01 -1.64120511E-07
  2.05089799E-06  1.51892110E-02  3.58124233E-08 -4.02708716E-07 -2.94274105E-03
  2.60865744E-05  1.92836923E-09  2.69971742E-09  3.05406510E-09  1.85306063E-09
 -4.09103380E-05  3.90120377E-09 -2.95198296E-09  9.57097041E-10  8.04023472E-10
  1.05990708E-04 -2.61256196E-09 -7.36486576E-10 -3.54224019E-09 -1.25786901E-09
 -1.51528533E-08  1.05549838E-07  6.92144842E-04 -6.37240907E-05  1.21311366E-08
  9.93999675E-09  1.42925262E-10  1.22722098E-09 -1.90103690E-06  1.68987708E-09
 -9.88381404E-10 -7.31109694E-10  2.33685983E-09 -2.16439946E-09  4.53650617E-10
 -7.99321096E-02  3.16875518E-01 -4.53004950E-01 -3.34817253E-01 -1.05092951E-02
  3.42676071E-03 -5.04753807E-11  9.17931236E-09 -2.19932436E-04  2.27714814E-09
 -2.21107024E-08  4.80278671E-04 -6.65340888E-09 -6.72693185E-09  2.60309570E-04
 -7.92755390E-06  5.72540526E-11 -3.35687124E-09  7.17251638E-09 -1.93864421E-09
  1.79310599E-05  1.22968094E-09 -5.00979612E-09  1.31979650E-08 -9.97733570E-09
 -1.43005142E-05  8.67008078E-09 -7.82379878E-09  2.25818016E-09 -4.01151679E-09
 -1.10075936E-09 -8.98514389E-10  2.95897666E-05  4.30756907E-04 -1.95747171E-10