HF file generated by AutoMR of MOKIT
Stability RHF                                                         Gen
Number of atoms                            I                2
Info1-9                                    I   N=           9
           6           5           0           0           0         110
           7           1           2
Charge                                     I                0
Multiplicity                               I                1
Number of electrons                        I               48
Number of alpha electrons                  I               24
Number of beta electrons                   I               24
Number of basis functions                  I               90
Number of independent functions            I               90
Number of point charges in /Mol/           I                0
Number of translation vectors              I                0
Atomic numbers                             I   N=           2
          24          24
Nuclear charges                            R   N=           2
  2.40000000E+01  2.40000000E+01
Current cartesian coordinates              R   N=           6
  0.00000000E+00  0.00000000E+00  0.00000000E+00  0.00000000E+00  0.00000000E+00
  7.55890453E+00
Force Field                                I                0
Int Atom Types                             I   N=           2
           0           0
MM charges                                 R   N=           2
  0.00000000E+00  0.00000000E+00
Integer atomic weights                     I   N=           2
          52          52
Real atomic weights                        R   N=           2
  5.19405097E+01  5.19405097E+01
Atom fragment info                         I   N=           2
           1           2
Atom residue num                           I   N=           2
           0           0
Nuclear spins                              I   N=           2
           0           0
Nuclear ZEff                               R   N=           2
 -2.47200000E+01 -2.47200000E+01
Nuclear QMom                               R   N=           2
  0.00000000E+00  0.00000000E+00
Nuclear GFac                               R   N=           2
  0.00000000E+00  0.00000000E+00
MicOpt                                     I   N=           2
          -1          -1
Number of contracted shells                I               30
Number of primitive shells                 I               72
Pure/Cartesian d shells                    I                0
Pure/Cartesian f shells                    I                0
Highest angular momentum                   I                3
Largest degree of contraction              I                8
Shell types                                I   N=          30
           0           0           0           0           0           0
           1           1           1          -2          -2          -2
           1          -2          -3           0           0           0
           0           0           0           1           1           1
          -2          -2          -2           1          -2          -3
Number of primitives per shell             I   N=          30
           8           4           2           1           1           1
           6           3           1           4           1           1
           1           1           1           8           4           2
           1           1           1           6           3           1
           4           1           1           1           1           1
Shell to atom map                          I   N=          30
           1           1           1           1           1           1
           1           1           1           1           1           1
           1           1           1           2           2           2
           2           2           2           2           2           2
           2           2           2           2           2           2
Primitive exponents                        R   N=          72
  2.54477807E+05  3.81317971E+04  8.67529306E+03  2.45500998E+03  7.99162178E+02
  2.86900215E+02  1.11254132E+02  4.38641526E+01  2.79326692E+02  8.62747324E+01
  1.35557561E+01  5.69781128E+00  8.56365826E+00  1.39882968E+00  5.72881711E-01
  9.00961713E-02  3.41258851E-02  1.30643989E+03  3.09253114E+02  9.89962740E+01
  3.67569165E+01  1.45666571E+01  5.87399374E+00  2.28909997E+01  3.08550018E+00
  1.21323291E+00  4.49316807E-01  4.37200745E+01  1.23912427E+01  4.26394420E+00
  1.55252218E+00  5.37619295E-01  1.64931731E-01  1.20675000E-01  5.10000000E-02
  1.14700000E+00  2.54477807E+05  3.81317971E+04  8.67529306E+03  2.45500998E+03
  7.99162178E+02  2.86900215E+02  1.11254132E+02  4.38641526E+01  2.79326692E+02
  8.62747324E+01  1.35557561E+01  5.69781128E+00  8.56365826E+00  1.39882968E+00
  5.72881711E-01  9.00961713E-02  3.41258851E-02  1.30643989E+03  3.09253114E+02
  9.89962740E+01  3.67569165E+01  1.45666571E+01  5.87399374E+00  2.28909997E+01
  3.08550018E+00  1.21323291E+00  4.49316807E-01  4.37200745E+01  1.23912427E+01
  4.26394420E+00  1.55252218E+00  5.37619295E-01  1.64931731E-01  1.20675000E-01
  5.10000000E-02  1.14700000E+00
Contraction coefficients                   R   N=          72
  2.42904776E-04  1.88435236E-03  9.80095844E-03  3.98250087E-02  1.29405437E-01
  3.06290018E-01  4.34628350E-01  2.24695629E-01 -2.43633579E-02 -1.15114954E-01
  5.50922663E-01  5.36113547E-01 -3.71230177E-01  1.16811695E+00  1.00000000E+00
  1.00000000E+00  1.00000000E+00  2.82928007E-03  2.27766292E-02  1.05645619E-01
  2.99499449E-01  4.77062454E-01  2.76542344E-01 -1.94121061E-02  3.86188758E-01
  6.76239089E-01  1.00000000E+00  2.20932593E-02  1.28014388E-01  3.86529103E-01
  6.41033014E-01  1.00000000E+00  1.00000000E+00  1.00000000E+00  1.00000000E+00
  1.00000000E+00  2.42904776E-04  1.88435236E-03  9.80095844E-03  3.98250087E-02
  1.29405437E-01  3.06290018E-01  4.34628350E-01  2.24695629E-01 -2.43633579E-02
 -1.15114954E-01  5.50922663E-01  5.36113547E-01 -3.71230177E-01  1.16811695E+00
  1.00000000E+00  1.00000000E+00  1.00000000E+00  2.82928007E-03  2.27766292E-02
  1.05645619E-01  2.99499449E-01  4.77062454E-01  2.76542344E-01 -1.94121061E-02
  3.86188758E-01  6.76239089E-01  1.00000000E+00  2.20932593E-02  1.28014388E-01
  3.86529103E-01  6.41033014E-01  1.00000000E+00  1.00000000E+00  1.00000000E+00
  1.00000000E+00  1.00000000E+00
Coordinates of each shell                  R   N=          90
  0.00000000E+00  0.00000000E+00  0.00000000E+00  0.00000000E+00  0.00000000E+00
  0.00000000E+00  0.00000000E+00  0.00000000E+00  0.00000000E+00  0.00000000E+00
  0.00000000E+00  0.00000000E+00  0.00000000E+00  0.00000000E+00  0.00000000E+00
  0.00000000E+00  0.00000000E+00  0.00000000E+00  0.00000000E+00  0.00000000E+00
  0.00000000E+00  0.00000000E+00  0.00000000E+00  0.00000000E+00  0.00000000E+00
  0.00000000E+00  0.00000000E+00  0.00000000E+00  0.00000000E+00  0.00000000E+00
  0.00000000E+00  0.00000000E+00  0.00000000E+00  0.00000000E+00  0.00000000E+00
  0.00000000E+00  0.00000000E+00  0.00000000E+00  0.00000000E+00  0.00000000E+00
  0.00000000E+00  0.00000000E+00  0.00000000E+00  0.00000000E+00  0.00000000E+00
  0.00000000E+00  0.00000000E+00  7.55890453E+00  0.00000000E+00  0.00000000E+00
  7.55890453E+00  0.00000000E+00  0.00000000E+00  7.55890453E+00  0.00000000E+00
  0.00000000E+00  7.55890453E+00  0.00000000E+00  0.00000000E+00  7.55890453E+00
  0.00000000E+00  0.00000000E+00  7.55890453E+00  0.00000000E+00  0.00000000E+00
  7.55890453E+00  0.00000000E+00  0.00000000E+00  7.55890453E+00  0.00000000E+00
  0.00000000E+00  7.55890453E+00  0.00000000E+00  0.00000000E+00  7.55890453E+00
  0.00000000E+00  0.00000000E+00  7.55890453E+00  0.00000000E+00  0.00000000E+00
  7.55890453E+00  0.00000000E+00  0.00000000E+00  7.55890453E+00  0.00000000E+00
  0.00000000E+00  7.55890453E+00  0.00000000E+00  0.00000000E+00  7.55890453E+00
Constraint Structure                       R   N=           6
  0.00000000E+00  0.00000000E+00  0.00000000E+00  0.00000000E+00  0.00000000E+00
  7.55890453E+00
Num ILSW                                   I              100
ILSW                                       I   N=         100
           0           0           0           0           2           1
           0           0           0           0           0          -1
           0           0           0           0           0           0
           0           0           0           0           0           0
           1           1           0           0           0           0
           0           0      100000           0          -1           0
           0           0           0           0           0           0
           0           0           0           1           0           0
           0           0           1           0           0           0
           0           0           4          40           0           0
           0           0           0           0           0           0
           0           0           0           0           0           0
           0           0           0           0           0           0
           0           0           0           0           0           0
           0           0           0           0           0           0
           0           0           0           0           0           0
           0           0           0           0
Num RLSW                                   I               40
RLSW                                       R   N=          40
  1.00000000E+00  1.00000000E+00  1.00000000E+00  1.00000000E+00  1.00000000E+00
  0.00000000E+00  0.00000000E+00  1.00000000E+00  0.00000000E+00  0.00000000E+00
  0.00000000E+00  0.00000000E+00  1.00000000E+00  0.00000000E+00  0.00000000E+00
  0.00000000E+00  0.00000000E+00  1.00000000E+00  0.00000000E+00  0.00000000E+00
  0.00000000E+00  0.00000000E+00  1.00000000E+00  0.00000000E+00  0.00000000E+00
  0.00000000E+00  0.00000000E+00  1.00000000E+00  0.00000000E+00  0.00000000E+00
  0.00000000E+00  0.00000000E+00  1.00000000E+00  0.00000000E+00  0.00000000E+00
  0.00000000E+00  0.00000000E+00  0.00000000E+00  1.00000000E+00  1.00000000E+00
ECP-MxAtEC                                 I           250000
ECP-MaxLECP                                I               10
ECP-MaxAtL                                 I          2250000
ECP-MxTECP                                 I         11250000
ECP-LenNCZ                                 I                0
ECP-KFirst                                 I   N=          20
           0           0           0           0           0           0
           0           0           0           0           0           0
           0           0           0           0           0           0
           0           0
ECP-KLast                                  I   N=          20
           0           0           0           0           0           0
           0           0           0           0           0           0
           0           0           0           0           0           0
           0           0
ECP-LMax                                   I   N=           2
           0           0
ECP-LPSkip                                 I   N=           2
           1           1
ECP-RNFroz                                 R   N=           2
  0.00000000E+00  0.00000000E+00
ECP-NLP                                    I                0
ECP-CLP1                                   R      0.000000000000000E+00
ECP-CLP2                                   R      0.000000000000000E+00
ECP-ZLP                                    R      0.000000000000000E+00
MxBond                                     I                1
NBond                                      I   N=           2
           0           0
IBond                                      I   N=           2
           0           0
RBond                                      R   N=           2
  0.00000000E+00  0.00000000E+00
Virial Ratio                               R      2.000025260610248E+00
SCF Energy                                 R     -2.086670643535294E+03
Total Energy                               R     -2.086670643535294E+03
S**2                                       R      5.898514692580861E+00
S**2 after annihilation                    R      1.824398861277378E+01
RMS Density                                R      1.915882148184216E-09
External E-field                           R   N=          35
  0.00000000E+00  0.00000000E+00  0.00000000E+00  0.00000000E+00  0.00000000E+00
  0.00000000E+00  0.00000000E+00  0.00000000E+00  0.00000000E+00  0.00000000E+00
  0.00000000E+00  0.00000000E+00  0.00000000E+00  0.00000000E+00  0.00000000E+00
  0.00000000E+00  0.00000000E+00  0.00000000E+00  0.00000000E+00  0.00000000E+00
  0.00000000E+00  0.00000000E+00  0.00000000E+00  0.00000000E+00  0.00000000E+00
  0.00000000E+00  0.00000000E+00  0.00000000E+00  0.00000000E+00  0.00000000E+00
  0.00000000E+00  0.00000000E+00  0.00000000E+00  0.00000000E+00  0.00000000E+00
IOpCl                                      I                0
IROHF                                      I                0
Alpha Orbital Energies                     R   N=          90
  2.00000000E+00  2.00000000E+00  1.99999999E+00  1.99999999E+00  1.99999919E+00
  1.99999915E+00  1.99999904E+00  1.99999872E+00  1.99999872E+00  1.99999868E+00
  1.99999868E+00  1.99999868E+00  1.99999537E+00  1.99999418E+00  1.99999418E+00
  1.99999368E+00  1.99999368E+00  1.99999298E+00  1.31799104E+00  1.01235188E+00
  1.01217031E+00  1.01217031E+00  1.00205274E+00  1.00205274E+00  9.97947258E-01
  9.97947258E-01  9.87829686E-01  9.87829686E-01  9.87648121E-01  6.82008964E-01
  0.00000000E+00  0.00000000E+00  0.00000000E+00  0.00000000E+00  0.00000000E+00
  0.00000000E+00  0.00000000E+00  0.00000000E+00  0.00000000E+00  0.00000000E+00
  0.00000000E+00  0.00000000E+00  0.00000000E+00  0.00000000E+00  0.00000000E+00
  0.00000000E+00  0.00000000E+00  0.00000000E+00  0.00000000E+00  0.00000000E+00
  0.00000000E+00  0.00000000E+00  0.00000000E+00  0.00000000E+00  0.00000000E+00
  0.00000000E+00  0.00000000E+00  0.00000000E+00  0.00000000E+00  0.00000000E+00
  0.00000000E+00  0.00000000E+00  0.00000000E+00  0.00000000E+00  0.00000000E+00
  0.00000000E+00  0.00000000E+00  0.00000000E+00  0.00000000E+00  0.00000000E+00
  0.00000000E+00  0.00000000E+00  0.00000000E+00  0.00000000E+00  0.00000000E+00
  0.00000000E+00  0.00000000E+00  0.00000000E+00  0.00000000E+00  0.00000000E+00
  0.00000000E+00  0.00000000E+00  0.00000000E+00  0.00000000E+00  0.00000000E+00
  0.00000000E+00  0.00000000E+00  0.00000000E+00  0.00000000E+00  0.00000000E+00
Alpha MO coefficients                      R   N=        8100
 -9.98295464E-01 -5.33153893E-03  1.97305391E-03 -1.73273362E-03  4.60836244E-04
 -2.19225018E-04 -5.11925395E-11  6.63033207E-12  5.28331622E-06  1.06952111E-11
  3.49858528E-12  4.04819471E-06  3.84841495E-12  9.63100300E-13 -3.66611225E-06
  1.55769684E-06 -6.17028174E-16 -3.91950484E-16  3.64347246E-17  3.17737669E-17
 -5.76180922E-06 -2.79606185E-15 -1.00224921E-16  2.39345178E-17  2.12981304E-17
  1.37117364E-05 -3.27107231E-15 -2.77483201E-15  1.38262033E-17  1.20133807E-17
  5.66222733E-14  4.90514772E-14  1.22529183E-05 -1.08721741E-05  6.58833731E-15
  8.80600133E-15  1.24182999E-18  1.13276658E-18  8.74129917E-08 -1.56865471E-17
  5.06451930E-17 -1.08971692E-20 -3.34271378E-20 -1.92375299E-20 -4.26129873E-20
 -9.57427185E-05  6.02952554E-06 -1.11013183E-05  3.37095890E-06  3.58810486E-06
  1.16990548E-05 -6.28832049E-11 -3.81956491E-11  1.95710478E-05  2.39396592E-11
  8.38342001E-12 -5.78862736E-06  7.92905818E-12  2.92779097E-12 -1.82821685E-05
 -1.95487300E-06  8.23559734E-15  2.64027137E-15  5.54525736E-21  3.84255543E-21
  6.40084236E-06  6.94325402E-15  3.36207722E-15  1.70011355E-21  1.78948353E-21
 -5.86924335E-06  5.26156924E-15 -7.83908821E-16  6.95754833E-21  7.54152958E-21
  9.40047642E-14  1.75431990E-14  1.26112745E-05 -3.22479971E-05 -1.33364881E-14
  4.07176811E-15  2.79632221E-20  1.95252590E-20  5.08509717E-07 -5.15145326E-18
 -4.31122174E-17 -1.72713942E-21 -1.15671403E-21 -1.59830986E-22 -6.01293213E-23
  9.13598357E-05  7.02725567E-06 -1.14635910E-05  3.69019275E-06  3.50691888E-06
  1.17507413E-05 -5.95221302E-11  8.56172809E-12 -1.95723807E-05  1.32129076E-11
  4.41696522E-13  5.78997844E-06  4.71163583E-12  2.43472773E-14  1.82736918E-05
 -1.95603140E-06 -2.47657266E-15 -2.58343391E-16  7.88559241E-17 -1.49869989E-16
  6.40672472E-06 -6.44301535E-15 -4.94646321E-17  5.27458893E-17 -1.00247897E-16
 -5.88477027E-06  1.64184562E-15 -3.30510070E-16  2.99436273E-17 -5.69031153E-17
  6.73204623E-14  1.55093622E-14 -1.25959197E-05 -3.22224112E-05 -1.18998410E-14
  1.21716118E-15  2.79626626E-18 -5.29936362E-18 -5.10243271E-07 -1.20736026E-16
  1.41008789E-17 -3.15802209E-20  7.71650108E-20  3.12800622E-21  1.99049286E-21
 -9.98295462E-01 -5.33154040E-03  1.97307489E-03 -1.73277175E-03  4.60912847E-04
 -2.19305920E-04 -9.84882716E-13 -8.53368362E-14 -5.28702577E-06  8.19508318E-13
  2.80223499E-14 -4.04590190E-06  2.55290395E-13  1.00061904E-14  3.66395886E-06
  1.59481490E-06  7.07506982E-16 -4.29120668E-17  4.21183668E-19  6.23805839E-19
 -5.79205379E-06 -1.92795742E-15  2.20505996E-16 -2.69358450E-19 -4.18800358E-19
  1.36922130E-05  7.80213021E-15 -7.12701616E-16  1.27739159E-19  1.49031401E-19
  1.25366357E-14 -7.79615021E-16 -1.22401598E-05 -1.08516685E-05 -2.42818532E-14
  2.29328187E-15  1.39068580E-20 -1.62346554E-19 -9.75316019E-08  8.89586396E-17
 -1.22212839E-17 -3.41300203E-21 -2.80153914E-21  3.71429296E-22 -9.35932621E-21
  6.30797431E-02 -2.61279761E-01  4.48872124E-01  3.30195286E-01  1.03951577E-02
 -3.31682291E-03 -4.09192572E-11  7.14054272E-11 -1.99627357E-02  8.51289117E-12
 -1.53172671E-11  1.51594231E-03  3.06917569E-12 -5.48752410E-12  6.39120551E-04
  3.24051872E-05 -2.06094979E-15  1.80894394E-15 -1.14697109E-16  1.45554174E-16
 -2.20638573E-05 -5.03392111E-15  4.74448861E-15  1.19613674E-16  1.19102476E-16
  3.81329246E-06  2.71094746E-15  4.37829354E-15 -2.59931829E-17  9.89768729E-17
  3.80578976E-14 -8.28067122E-14 -4.31235961E-05 -4.69580501E-04 -1.36745866E-14
 -7.69103096E-15  1.08468062E-17  6.87595799E-18 -8.87177642E-06 -1.69794349E-16
  2.31774386E-17 -9.04213901E-18 -3.43204848E-17 -1.97827643E-17 -2.16667096E-17
  6.30818326E-02 -2.61270596E-01  4.48919822E-01  3.30087608E-01  1.06186494E-02
 -3.50551431E-03  2.18890882E-11  1.05342030E-10  1.99632248E-02 -6.31650167E-12
 -1.74604893E-11 -1.51821472E-03 -2.14590784E-12 -6.32865532E-12 -6.30403845E-04
 -1.61210965E-05 -1.75270265E-15 -5.91905202E-15 -2.15181168E-17  2.13491278E-17
 -1.01442650E-06 -3.90672100E-15 -4.73321320E-15  1.08568013E-16  3.98566390E-17
  3.75038214E-05  5.74114351E-15 -7.14175920E-15 -3.49296894E-17 -7.83577321E-18
 -1.28561569E-14 -2.70598991E-14  2.56182037E-05 -4.22079454E-04 -1.88844133E-14
  1.85563251E-14  1.12346682E-17  3.46307119E-18  3.31535508E-06  9.69822972E-17
 -4.00498698E-17 -8.94988956E-19  5.63782616E-18  1.43256541E-17  1.11564075E-17
  6.38368144E-02 -2.63701140E-01  4.48673882E-01  3.29802532E-01  1.04434740E-02
 -3.70274264E-03 -9.70089293E-11  3.88767833E-11 -3.47102257E-02  2.17843694E-11
 -7.30852937E-12  4.58117590E-03  7.75644085E-12 -2.68029516E-12  1.39918182E-03
  5.60881812E-05 -4.80594583E-15  1.31323974E-15 -8.28569478E-17 -1.57825739E-16
 -1.55318507E-04 -1.22070907E-14  3.31098622E-15  1.37531941E-16 -7.56526541E-17
  2.42128384E-04  6.12154167E-15 -1.02956558E-16 -1.32618502E-17  1.19452527E-17
  1.08086432E-13 -3.12132034E-14  3.67727629E-04  3.21684229E-04 -3.14728009E-14
  4.12248588E-15  1.34665246E-17 -6.75500656E-18 -3.11095523E-06 -3.19832562E-16
  5.38693382E-17 -1.41423132E-17  2.56262792E-17 -1.11287466E-17 -1.77027485E-17
 -6.38385235E-02  2.63688805E-01 -4.48721920E-01 -3.29680514E-01 -1.07154894E-02
  3.88337552E-03  5.13116273E-11  1.77725591E-11 -3.47101308E-02 -1.04309130E-11
 -2.27580822E-12  4.58066347E-03 -3.68659180E-12 -8.59629788E-13  1.40099917E-03
 -9.10908500E-06 -2.59304874E-15 -9.73211863E-16  2.07498973E-17 -2.15831387E-17
  1.16600811E-04 -7.83534334E-15  3.38600499E-16 -1.09082449E-16 -3.98408113E-17
 -2.89055565E-04  1.38580766E-14 -4.51111376E-15  3.62274701E-17  7.81583873E-18
 -4.94479502E-15 -4.45919161E-15  3.86359861E-04 -2.22904025E-04 -4.52112673E-14
  1.35430837E-14 -1.27845331E-17 -2.11339602E-18  5.42808999E-06  1.83796175E-16
 -3.36915380E-17  1.16861930E-18 -5.50796099E-18 -1.42052434E-17 -1.13031719E-17
  1.95958838E-01 -6.58198050E-01  1.17285263E-02  3.09001620E-02 -1.12310997E-03
  2.48861399E-04 -3.00043567E-11 -2.17154199E-10  3.62715965E-01  6.56930354E-12
  4.46844392E-11 -1.48071368E-01  2.35431245E-12  1.61329663E-11 -4.89296190E-02
  1.44505392E-05 -2.90947774E-15 -8.01477653E-15  5.08928364E-17  1.21546140E-16
  6.74384642E-05 -7.14544045E-15 -2.13835138E-14  4.26912048E-17  6.93791264E-17
 -1.34840176E-04  9.15930551E-15  4.37303541E-15  6.29941236E-18  5.55115547E-17
  2.24141261E-14  2.09896821E-13 -1.19709625E-03  1.49913999E-04 -3.49536226E-14
 -3.68511382E-14  2.10094029E-18  2.39903537E-18  5.50507217E-06 -2.16688614E-16
 -4.05069874E-16  5.70660229E-19  4.71355752E-17  5.92172398E-18 -1.69515337E-18
  1.96077101E-01 -6.58131973E-01  1.35608913E-02  2.86889252E-02 -3.77418315E-04
  4.06928309E-05  1.31401446E-10 -3.00820208E-11 -3.62791430E-01 -2.53027244E-11
  7.75312444E-12  1.48322144E-01 -8.98738663E-12  2.63920304E-12  4.88022273E-02
  3.89399346E-05 -7.76053315E-15  4.00724572E-15  5.48181981E-18  1.19393975E-17
  1.12247499E-04 -1.14595916E-14 -4.89748042E-15  7.32674401E-18 -1.97998748E-18
 -1.45043151E-04  6.63777735E-15  2.72935144E-14 -4.70840155E-18  1.17664439E-19
 -3.65453619E-14  5.15063003E-14  8.23335282E-04  4.62168848E-05 -2.56187643E-14
 -8.40699230E-14  1.20765472E-18  3.38066348E-20  2.59262538E-06  1.58352835E-16
  3.02383337E-16  1.09627794E-17  5.01213271E-18 -4.93346707E-19  4.36854227E-19
  2.22442576E-01 -7.45964450E-01  3.13642825E-03  2.75342248E-02 -1.24117349E-03
  3.76749204E-04 -1.05708691E-10  6.88970216E-11 -8.72321848E-02  2.05618823E-11
 -1.60291316E-11  3.11756482E-02  7.49672014E-12 -5.67773430E-12  1.05233426E-02
 -2.17026775E-05 -3.53485941E-15  3.82228916E-15 -7.17434676E-17 -1.17226742E-17
  2.83258792E-05 -9.90175885E-15  9.84843892E-15 -4.15949724E-17 -9.80284416E-18
 -7.44582883E-05  2.18250056E-15 -6.51468849E-15 -2.42344970E-17  1.20754758E-18
  8.93317317E-14 -8.00030908E-14  7.64173708E-05 -8.41366218E-05 -1.76960483E-14
  2.99554150E-14 -2.10347057E-18 -1.04752281E-18 -3.02186777E-06 -1.98375072E-16
  2.24157350E-16 -1.54264498E-18  5.79975570E-18  1.03004605E-18  2.18661572E-18
 -2.22581248E-01  7.45907174E-01 -5.24723380E-03 -2.50997794E-02  6.49919916E-04
 -3.13554972E-04 -1.28049280E-11 -7.25641498E-11 -8.72509903E-02  4.72583797E-12
  1.27278165E-11  3.12359879E-02  1.56021208E-12  4.58559665E-12  1.05042423E-02
  2.52094014E-05  2.30185561E-15  3.45600053E-15 -1.68675438E-17 -1.20769144E-17
 -3.52700449E-05 -2.04497758E-15  7.90271180E-15  3.38508444E-18  3.35018022E-18
  7.19621644E-05  1.31093505E-14 -1.06778387E-14 -2.55184203E-18 -2.31720139E-18
  3.17099731E-14  5.37331436E-15 -3.97421028E-05  1.19485128E-04 -4.03852547E-14
  3.59398422E-14  9.07214709E-19  8.52204438E-19 -1.67156641E-06  1.44163239E-16
 -1.63743001E-16  2.11942950E-18  7.13684827E-19  5.59360470E-20 -9.67195401E-19
 -1.09510254E-01  3.66281552E-01  6.39830881E-03 -7.49552779E-03  5.60220886E-04
 -2.52479035E-04  2.85809184E-11 -5.14780907E-10  6.43821688E-01 -6.28567101E-12
  1.04302305E-10 -2.32178630E-01 -2.23628973E-12  3.77584980E-11 -7.76122895E-02
  2.95152860E-05 -1.16830659E-15 -1.87333428E-14  6.62749807E-17  1.81580567E-16
  1.16743182E-04 -2.13735950E-15 -5.07045578E-14  4.14692642E-17  1.12447325E-16
 -1.57252175E-04  1.00426660E-14  1.20357463E-14  4.79501423E-18  8.09355973E-17
 -4.53806972E-14  4.78002267E-13 -1.75868057E-03  8.21127733E-05 -3.20762589E-14
 -9.24979996E-14  1.06688015E-18  4.14463067E-18  7.05163779E-06 -1.41386967E-16
 -9.86161257E-16  7.68186556E-19  7.77298663E-17  9.93978708E-18 -3.50452453E-18
 -1.09584214E-01  3.66268712E-01  5.30680099E-03 -6.33486864E-03  5.45365727E-04
 -5.37893143E-04  1.68732219E-10 -4.25189344E-11 -6.43990266E-01 -3.61799185E-11
  1.56723577E-11  2.32761317E-01 -1.26675158E-11  5.15936678E-12  7.71668858E-02
  5.89809246E-05 -1.17208648E-14  8.75696253E-15 -1.91632979E-17 -4.23724926E-18
  2.00425460E-04 -1.34315978E-14 -1.28773993E-14  1.43682975E-17  2.73545797E-18
 -2.18711741E-04 -2.51593578E-16  6.49980086E-14 -1.06451560E-17 -3.74827899E-18
 -7.75928266E-14  1.28976186E-13  1.27642173E-03 -1.38149323E-04 -5.73487626E-15
 -2.01145111E-13  3.10384654E-18  1.28769893E-18  6.37346681E-06  1.09133588E-16
  7.33985988E-16  1.70145532E-17  7.30789258E-18 -7.14275720E-19 -9.96680245E-19
 -2.16838119E-12 -2.42618517E-10  6.17794355E-11  5.21218382E-11  1.17523203E-12
  8.46206329E-13  7.39087388E-01 -1.03502210E-01  1.02928176E-09 -1.74192272E-01
  2.43939831E-02 -1.87260902E-10 -6.15033266E-02  8.61296023E-03 -6.97151315E-11
  1.76470202E-13  2.35606940E-05 -3.29945266E-06  1.24495332E-16  1.30229437E-16
 -5.17250869E-14  6.15821257E-05 -8.62399503E-06 -2.47663418E-18 -1.09491904E-16
  3.12656701E-13  2.75320717E-05 -3.85560726E-06  1.41569489E-16 -1.95211479E-16
 -1.00481998E-03  1.40715553E-04  3.25963289E-13  6.20116423E-13 -1.58387824E-05
  2.21807393E-06  1.18762830E-17  4.32478541E-16  1.39077416E-14  6.53570932E-07
 -9.15264112E-08 -1.75981923E-17 -1.22816851E-16 -1.63723670E-16 -2.25750598E-17
 -1.03214378E-10  2.12939194E-10 -4.07531220E-11 -3.53978454E-11 -7.21515228E-13
 -8.37433179E-13  7.39368348E-01 -1.03541565E-01  1.33726521E-09 -1.75193739E-01
  2.45342310E-02 -2.73275652E-10 -6.05669692E-02  8.48183287E-03 -9.69316782E-11
 -1.47908287E-13 -6.14620915E-05  8.60718624E-06  2.81831504E-16 -1.63300225E-17
  5.91710574E-14 -4.10434039E-05  5.74774199E-06 -3.09233528E-16  9.03092480E-17
 -3.43654486E-13 -8.35721196E-05  1.17034861E-05  1.48997541E-16 -4.06487083E-17
 -5.25270645E-04  7.35591990E-05  5.52244169E-13 -5.34074024E-13  2.30978426E-04
 -3.23463467E-05 -7.45840325E-17  8.26996497E-18  3.35904953E-15 -4.26798852E-07
  5.97691406E-08  8.03809099E-17  3.34308500E-17 -2.02754314E-16 -1.74044440E-16
 -8.30924006E-11  1.83304279E-10 -9.05380433E-11 -7.09386873E-11 -1.99899967E-12
 -3.69004702E-13  1.03502215E-01  7.39087377E-01 -6.64634221E-10 -2.43939842E-02
 -1.74192269E-01  5.58663019E-11 -8.61296062E-03 -6.15033258E-02  2.56534739E-11
 -1.28686253E-13  3.29945293E-06  2.35606935E-05  5.71676265E-18 -1.98363159E-16
  8.78867972E-14  8.62399573E-06  6.15821242E-05 -7.38556098E-17  9.92236537E-17
 -3.07516469E-13  3.85560678E-06  2.75320727E-05 -1.83193001E-16 -2.75858719E-16
 -1.40715558E-04 -1.00481997E-03 -1.09182400E-12 -4.22871189E-13 -2.21807173E-06
 -1.58387870E-05  2.02869069E-16  2.99553067E-16 -7.22428880E-15  9.15264277E-08
  6.53570898E-07 -3.08359651E-17  4.34061773E-17 -1.80206481E-16 -6.64967018E-18
  2.04882965E-11 -6.77517305E-11 -5.16646413E-12 -1.77366481E-12 -2.03577177E-13
  8.04724037E-13  1.03541559E-01  7.39368359E-01 -1.22861302E-09 -2.45342300E-02
 -1.75193742E-01  2.99451192E-10 -8.48183251E-03 -6.05669700E-02  1.03762022E-10
  1.41887425E-13 -8.60718595E-06 -6.14620921E-05 -1.42227050E-16  1.06456069E-16
  1.40680709E-14 -5.74774138E-06 -4.10434052E-05  2.13051881E-16 -1.15160636E-17
  2.06907350E-13 -1.17034869E-05 -8.35721180E-05 -1.27275829E-16  2.11693912E-17
 -7.35591979E-05 -5.25270648E-04  3.04296158E-14  4.33404927E-13  3.23463493E-05
  2.30978420E-04  1.14179994E-17 -2.20851978E-17 -1.27234442E-15 -5.97691530E-08
 -4.26798825E-07 -1.06836849E-16 -1.83404976E-18 -3.24935579E-17 -1.62054323E-17
 -2.88795649E-02  9.91405816E-02 -2.14934809E-02 -1.87414540E-02 -3.56720679E-04
 -6.51273920E-04  5.39864587E-09  6.43878045E-08 -7.38418857E-01 -1.16412519E-09
 -1.35028113E-08  1.45819580E-01 -4.17237883E-10 -4.86334789E-09  5.33793499E-02
 -1.13912158E-04  2.62057395E-13  3.40219396E-12 -9.36795781E-17 -1.74241455E-16
  1.78957325E-05  6.75004281E-13  8.75070443E-12 -7.32787254E-17 -1.01614454E-16
 -1.73422910E-04 -3.67959900E-13 -6.19701536E-12 -2.10526733E-17 -5.57240829E-17
 -5.46141841E-12 -5.87677421E-11 -2.10942722E-06 -4.09593730E-04  1.83347638E-12
  2.80506083E-11 -4.33300040E-18 -5.14650604E-18 -9.93096555E-06  1.48536963E-14
  2.09061929E-13 -4.89946622E-18  1.75564609E-17  4.40362613E-18  6.50605170E-18
  2.89019124E-02 -9.91407171E-02  2.18154335E-02  1.84178569E-02  4.04410767E-04
  5.79889146E-04 -3.28037613E-09 -6.66452772E-08 -7.38713966E-01  6.64094338E-10
  1.41317578E-08  1.46873594E-01  2.34756272E-10  4.96170001E-09  5.23681790E-02
  8.75758550E-05  1.70856086E-13  4.01980125E-12 -7.57498556E-18  2.35120981E-18
 -5.84770823E-05  4.68015630E-13  8.03020046E-12  1.01521019E-17  1.32854011E-18
  2.40553906E-04 -7.71443539E-13 -9.70461825E-12 -4.44696721E-18 -8.04906680E-19
  4.24525946E-13  1.88570064E-11 -4.62552554E-04  3.34670642E-04  2.53376893E-12
  3.28871986E-11  1.66719536E-18 -1.01250225E-19 -2.65466248E-06 -1.11480691E-14
 -1.58534687E-13  1.17091687E-17  5.22196568E-18  2.61183973E-19 -4.61522000E-20
 -1.54803754E-09  5.26166399E-09 -1.13115054E-09 -9.87958230E-10 -1.86586791E-11
 -3.58954243E-11  5.52415493E-01 -5.00002904E-01 -4.04766855E-08 -1.16056534E-01
  1.05045215E-01  8.03916605E-09 -4.17868225E-02  3.78221338E-02  2.93970050E-09
 -6.23933520E-12  2.89788969E-05 -2.62294102E-05  1.07491998E-16  4.53734006E-17
  9.46044441E-13  7.45622355E-05 -6.74878505E-05  4.47020817E-17 -1.14013402E-16
 -9.44383476E-12 -5.19045423E-05  4.69798942E-05  5.11654751E-17 -2.69343245E-16
 -5.08031958E-04  4.59830436E-04  4.89100416E-13 -2.24021938E-11  2.36322942E-04