HF file generated by AutoMR of MOKIT
Stability RHF                                                         Gen
Number of atoms                            I                2
Info1-9                                    I   N=           9
           6           5           0           0           0         110
           7           1           2
Charge                                     I                0
Multiplicity                               I                1
Number of electrons                        I               48
Number of alpha electrons                  I               24
Number of beta electrons                   I               24
Number of basis functions                  I               90
Number of independent functions            I               90
Number of point charges in /Mol/           I                0
Number of translation vectors              I                0
Atomic numbers                             I   N=           2
          24          24
Nuclear charges                            R   N=           2
  2.40000000E+01  2.40000000E+01
Current cartesian coordinates              R   N=           6
  0.00000000E+00  0.00000000E+00  0.00000000E+00  0.00000000E+00  0.00000000E+00
  7.55890453E+00
Force Field                                I                0
Int Atom Types                             I   N=           2
           0           0
MM charges                                 R   N=           2
  0.00000000E+00  0.00000000E+00
Integer atomic weights                     I   N=           2
          52          52
Real atomic weights                        R   N=           2
  5.19405097E+01  5.19405097E+01
Atom fragment info                         I   N=           2
           1           2
Atom residue num                           I   N=           2
           0           0
Nuclear spins                              I   N=           2
           0           0
Nuclear ZEff                               R   N=           2
 -2.47200000E+01 -2.47200000E+01
Nuclear QMom                               R   N=           2
  0.00000000E+00  0.00000000E+00
Nuclear GFac                               R   N=           2
  0.00000000E+00  0.00000000E+00
MicOpt                                     I   N=           2
          -1          -1
Number of contracted shells                I               30
Number of primitive shells                 I               72
Pure/Cartesian d shells                    I                0
Pure/Cartesian f shells                    I                0
Highest angular momentum                   I                3
Largest degree of contraction              I                8
Shell types                                I   N=          30
           0           0           0           0           0           0
           1           1           1          -2          -2          -2
           1          -2          -3           0           0           0
           0           0           0           1           1           1
          -2          -2          -2           1          -2          -3
Number of primitives per shell             I   N=          30
           8           4           2           1           1           1
           6           3           1           4           1           1
           1           1           1           8           4           2
           1           1           1           6           3           1
           4           1           1           1           1           1
Shell to atom map                          I   N=          30
           1           1           1           1           1           1
           1           1           1           1           1           1
           1           1           1           2           2           2
           2           2           2           2           2           2
           2           2           2           2           2           2
Primitive exponents                        R   N=          72
  2.54477807E+05  3.81317971E+04  8.67529306E+03  2.45500998E+03  7.99162178E+02
  2.86900215E+02  1.11254132E+02  4.38641526E+01  2.79326692E+02  8.62747324E+01
  1.35557561E+01  5.69781128E+00  8.56365826E+00  1.39882968E+00  5.72881711E-01
  9.00961713E-02  3.41258851E-02  1.30643989E+03  3.09253114E+02  9.89962740E+01
  3.67569165E+01  1.45666571E+01  5.87399374E+00  2.28909997E+01  3.08550018E+00
  1.21323291E+00  4.49316807E-01  4.37200745E+01  1.23912427E+01  4.26394420E+00
  1.55252218E+00  5.37619295E-01  1.64931731E-01  1.20675000E-01  5.10000000E-02
  1.14700000E+00  2.54477807E+05  3.81317971E+04  8.67529306E+03  2.45500998E+03
  7.99162178E+02  2.86900215E+02  1.11254132E+02  4.38641526E+01  2.79326692E+02
  8.62747324E+01  1.35557561E+01  5.69781128E+00  8.56365826E+00  1.39882968E+00
  5.72881711E-01  9.00961713E-02  3.41258851E-02  1.30643989E+03  3.09253114E+02
  9.89962740E+01  3.67569165E+01  1.45666571E+01  5.87399374E+00  2.28909997E+01
  3.08550018E+00  1.21323291E+00  4.49316807E-01  4.37200745E+01  1.23912427E+01
  4.26394420E+00  1.55252218E+00  5.37619295E-01  1.64931731E-01  1.20675000E-01
  5.10000000E-02  1.14700000E+00
Contraction coefficients                   R   N=          72
  2.42904776E-04  1.88435236E-03  9.80095844E-03  3.98250087E-02  1.29405437E-01
  3.06290018E-01  4.34628350E-01  2.24695629E-01 -2.43633579E-02 -1.15114954E-01
  5.50922663E-01  5.36113547E-01 -3.71230177E-01  1.16811695E+00  1.00000000E+00
  1.00000000E+00  1.00000000E+00  2.82928007E-03  2.27766292E-02  1.05645619E-01
  2.99499449E-01  4.77062454E-01  2.76542344E-01 -1.94121061E-02  3.86188758E-01
  6.76239089E-01  1.00000000E+00  2.20932593E-02  1.28014388E-01  3.86529103E-01
  6.41033014E-01  1.00000000E+00  1.00000000E+00  1.00000000E+00  1.00000000E+00
  1.00000000E+00  2.42904776E-04  1.88435236E-03  9.80095844E-03  3.98250087E-02
  1.29405437E-01  3.06290018E-01  4.34628350E-01  2.24695629E-01 -2.43633579E-02
 -1.15114954E-01  5.50922663E-01  5.36113547E-01 -3.71230177E-01  1.16811695E+00
  1.00000000E+00  1.00000000E+00  1.00000000E+00  2.82928007E-03  2.27766292E-02
  1.05645619E-01  2.99499449E-01  4.77062454E-01  2.76542344E-01 -1.94121061E-02
  3.86188758E-01  6.76239089E-01  1.00000000E+00  2.20932593E-02  1.28014388E-01
  3.86529103E-01  6.41033014E-01  1.00000000E+00  1.00000000E+00  1.00000000E+00
  1.00000000E+00  1.00000000E+00
Coordinates of each shell                  R   N=          90
  0.00000000E+00  0.00000000E+00  0.00000000E+00  0.00000000E+00  0.00000000E+00
  0.00000000E+00  0.00000000E+00  0.00000000E+00  0.00000000E+00  0.00000000E+00
  0.00000000E+00  0.00000000E+00  0.00000000E+00  0.00000000E+00  0.00000000E+00
  0.00000000E+00  0.00000000E+00  0.00000000E+00  0.00000000E+00  0.00000000E+00
  0.00000000E+00  0.00000000E+00  0.00000000E+00  0.00000000E+00  0.00000000E+00
  0.00000000E+00  0.00000000E+00  0.00000000E+00  0.00000000E+00  0.00000000E+00
  0.00000000E+00  0.00000000E+00  0.00000000E+00  0.00000000E+00  0.00000000E+00
  0.00000000E+00  0.00000000E+00  0.00000000E+00  0.00000000E+00  0.00000000E+00
  0.00000000E+00  0.00000000E+00  0.00000000E+00  0.00000000E+00  0.00000000E+00
  0.00000000E+00  0.00000000E+00  7.55890453E+00  0.00000000E+00  0.00000000E+00
  7.55890453E+00  0.00000000E+00  0.00000000E+00  7.55890453E+00  0.00000000E+00
  0.00000000E+00  7.55890453E+00  0.00000000E+00  0.00000000E+00  7.55890453E+00
  0.00000000E+00  0.00000000E+00  7.55890453E+00  0.00000000E+00  0.00000000E+00
  7.55890453E+00  0.00000000E+00  0.00000000E+00  7.55890453E+00  0.00000000E+00
  0.00000000E+00  7.55890453E+00  0.00000000E+00  0.00000000E+00  7.55890453E+00
  0.00000000E+00  0.00000000E+00  7.55890453E+00  0.00000000E+00  0.00000000E+00
  7.55890453E+00  0.00000000E+00  0.00000000E+00  7.55890453E+00  0.00000000E+00
  0.00000000E+00  7.55890453E+00  0.00000000E+00  0.00000000E+00  7.55890453E+00
Constraint Structure                       R   N=           6
  0.00000000E+00  0.00000000E+00  0.00000000E+00  0.00000000E+00  0.00000000E+00
  7.55890453E+00
Num ILSW                                   I              100
ILSW                                       I   N=         100
           0           0           0           0           2           1
           0           0           0           0           0          -1
           0           0           0           0           0           0
           0           0           0           0           0           0
           1           1           0           0           0           0
           0           0      100000           0          -1           0
           0           0           0           0           0           0
           0           0           0           1           0           0
           0           0           1           0           0           0
           0           0           4          40           0           0
           0           0           0           0           0           0
           0           0           0           0           0           0
           0           0           0           0           0           0
           0           0           0           0           0           0
           0           0           0           0           0           0
           0           0           0           0           0           0
           0           0           0           0
Num RLSW                                   I               40
RLSW                                       R   N=          40
  1.00000000E+00  1.00000000E+00  1.00000000E+00  1.00000000E+00  1.00000000E+00
  0.00000000E+00  0.00000000E+00  1.00000000E+00  0.00000000E+00  0.00000000E+00
  0.00000000E+00  0.00000000E+00  1.00000000E+00  0.00000000E+00  0.00000000E+00
  0.00000000E+00  0.00000000E+00  1.00000000E+00  0.00000000E+00  0.00000000E+00
  0.00000000E+00  0.00000000E+00  1.00000000E+00  0.00000000E+00  0.00000000E+00
  0.00000000E+00  0.00000000E+00  1.00000000E+00  0.00000000E+00  0.00000000E+00
  0.00000000E+00  0.00000000E+00  1.00000000E+00  0.00000000E+00  0.00000000E+00
  0.00000000E+00  0.00000000E+00  0.00000000E+00  1.00000000E+00  1.00000000E+00
ECP-MxAtEC                                 I           250000
ECP-MaxLECP                                I               10
ECP-MaxAtL                                 I          2250000
ECP-MxTECP                                 I         11250000
ECP-LenNCZ                                 I                0
ECP-KFirst                                 I   N=          20
           0           0           0           0           0           0
           0           0           0           0           0           0
           0           0           0           0           0           0
           0           0
ECP-KLast                                  I   N=          20
           0           0           0           0           0           0
           0           0           0           0           0           0
           0           0           0           0           0           0
           0           0
ECP-LMax                                   I   N=           2
           0           0
ECP-LPSkip                                 I   N=           2
           1           1
ECP-RNFroz                                 R   N=           2
  0.00000000E+00  0.00000000E+00
ECP-NLP                                    I                0
ECP-CLP1                                   R      0.000000000000000E+00
ECP-CLP2                                   R      0.000000000000000E+00
ECP-ZLP                                    R      0.000000000000000E+00
MxBond                                     I                1
NBond                                      I   N=           2
           0           0
IBond                                      I   N=           2
           0           0
RBond                                      R   N=           2
  0.00000000E+00  0.00000000E+00
Virial Ratio                               R      2.000025260610248E+00
SCF Energy                                 R     -2.086670643535294E+03
Total Energy                               R     -2.086670643535294E+03
S**2                                       R      5.898514692580861E+00
S**2 after annihilation                    R      1.824398861277378E+01
RMS Density                                R      1.915882148184216E-09
External E-field                           R   N=          35
  0.00000000E+00  0.00000000E+00  0.00000000E+00  0.00000000E+00  0.00000000E+00
  0.00000000E+00  0.00000000E+00  0.00000000E+00  0.00000000E+00  0.00000000E+00
  0.00000000E+00  0.00000000E+00  0.00000000E+00  0.00000000E+00  0.00000000E+00
  0.00000000E+00  0.00000000E+00  0.00000000E+00  0.00000000E+00  0.00000000E+00
  0.00000000E+00  0.00000000E+00  0.00000000E+00  0.00000000E+00  0.00000000E+00
  0.00000000E+00  0.00000000E+00  0.00000000E+00  0.00000000E+00  0.00000000E+00
  0.00000000E+00  0.00000000E+00  0.00000000E+00  0.00000000E+00  0.00000000E+00
IOpCl                                      I                0
IROHF                                      I                0
Alpha Orbital Energies                     R   N=          90
  2.00000000E+00  2.00000000E+00  1.99999998E+00  1.99999998E+00  1.99999895E+00
  1.99999886E+00  1.99999881E+00  1.99999833E+00  1.99999833E+00  1.99999830E+00
  1.99999827E+00  1.99999827E+00  1.99999398E+00  1.99999268E+00  1.99999268E+00
  1.99999202E+00  1.99999202E+00  1.99999107E+00  1.36592819E+00  1.01434615E+00
  1.01405011E+00  1.01405011E+00  1.00238678E+00  1.00238678E+00  9.97613225E-01
  9.97613225E-01  9.85949886E-01  9.85949886E-01  9.85653850E-01  6.34071807E-01
  8.92649225E-06  7.98066613E-06  7.98066613E-06  7.32378623E-06  7.32378623E-06
  6.01645987E-06  1.73323362E-06  1.73323362E-06  1.69645471E-06  1.66560039E-06
  1.66560039E-06  1.18888001E-06  1.14466059E-06  1.04736979E-06  2.20540212E-08
  2.08668747E-08  2.71701235E-15  2.16042704E-15  2.15534249E-15  4.92094307E-16
  4.71756558E-16  4.16275705E-16  3.83202947E-16  3.77443794E-16  2.01058609E-16
  1.69804262E-16  1.50693919E-16  1.39912892E-16  1.03781375E-16  1.01649243E-16
  9.24052181E-17  6.11806718E-17  5.07631670E-17  3.79075451E-17  1.26923466E-17
  8.63029468E-18  5.10855325E-18  3.29428375E-18  2.00971717E-18 -1.15352076E-18
 -2.68488838E-18 -6.46304530E-18 -6.99862653E-18 -1.03171565E-17 -3.01748199E-17
 -3.28058558E-17 -4.01797095E-17 -6.31856275E-17 -7.32401669E-17 -1.04788122E-16
 -1.15225422E-16 -1.24222838E-16 -1.62529546E-16 -1.69933591E-16 -1.90926975E-16
 -2.67501729E-16 -3.07030508E-16 -3.26646737E-16 -4.13152201E-16 -6.44562902E-16
Alpha MO coefficients                      R   N=        8100
  2.04146569E-01  1.09349675E-03 -4.12001790E-04  3.36538298E-04 -9.81736215E-05
  3.34899139E-05  2.39370023E-10  2.17844591E-10  1.66639454E-05 -4.05447343E-11
 -2.15112699E-10 -6.60127092E-06 -1.49191713E-11 -6.76670368E-11 -1.71914764E-05
  1.59372244E-06  1.62777283E-14  8.67164768E-14 -1.56423853E-16  3.82499678E-16
 -5.08983149E-06  2.53981122E-14  1.09408553E-13  2.46716337E-16  2.04065115E-16
  2.95812936E-06 -1.69814758E-15  1.55364357E-14  1.49670533E-16  3.65469046E-16
 -8.97767311E-14 -1.54700561E-12  9.85008613E-06  3.38207759E-05  2.53789279E-14
  1.69579510E-14  2.90248010E-16  1.32428304E-16  4.80832329E-07  6.01630470E-16
  1.03099256E-15  7.84429585E-18  5.15437581E-17  1.99844734E-16  1.94687519E-16
  9.77193974E-01  5.24197393E-03 -1.98240932E-03  1.65637589E-03 -4.53104913E-04
  2.12662929E-04  1.01783029E-10  1.45727431E-10  8.34736633E-06  3.38675732E-11
 -2.19801102E-11  5.12871324E-06  9.18495009E-12 -8.23960291E-12  1.60041936E-07
 -1.14537354E-06  1.56237104E-14 -5.71945170E-16  7.07004653E-17  3.91758483E-16
  4.34764453E-06  2.26326154E-14  2.64345543E-15  1.47633726E-16  2.40691129E-16
 -1.22235601E-05 -1.78069527E-14 -3.75234871E-14 -8.42902135E-17  3.97475844E-16
  3.54214556E-13 -7.57938069E-14  9.40852879E-06  1.72511954E-05  6.45706988E-14
  1.14467356E-13 -1.22290888E-16  4.93699454E-16 -1.65996305E-08 -2.92460781E-16
 -1.70194462E-16  2.05505654E-16 -9.92836412E-17  7.21146763E-17  8.57103978E-17
 -9.77193552E-01 -5.24263625E-03  1.98327881E-03 -1.66057336E-03  4.51567467E-04
 -2.17440819E-04  1.17546748E-10 -4.19532009E-10  1.63994443E-05 -9.76046747E-13
  5.51314035E-11  2.71129063E-06 -1.57796319E-12  2.13512222E-11 -7.33660028E-06
  1.94618569E-06  4.63896483E-16 -2.24001966E-14  1.59439062E-16  1.37416546E-16
 -6.96811793E-06  2.82478599E-15 -5.42081082E-14  1.89077105E-16  3.38517782E-16
  1.46315412E-05 -8.96795243E-16  5.37448106E-14  2.40565774E-16 -2.51273902E-17
  1.09365130E-13 -3.04106161E-14  1.45705762E-05 -4.04987311E-06  7.94815744E-15
 -2.03299691E-13  7.32599031E-17 -2.60043711E-16  1.91955069E-07 -1.15229235E-16
 -1.41651425E-15 -4.86445971E-19  2.65450909E-16 -1.20739248E-16 -9.81251079E-18
  2.04144514E-01  1.09682280E-03 -4.16435578E-04  3.56430883E-04 -9.08206609E-05
  5.63627517E-05  7.84244398E-11  4.17042526E-10  2.18393668E-05  2.84072586E-11
 -1.24831908E-10 -4.96414180E-06  7.77323061E-12 -4.24770682E-11 -1.86909737E-05
 -2.23957762E-06  1.21119232E-14 -4.91005936E-14  1.55085424E-16 -4.83210783E-16
  7.45379348E-06  1.50656142E-14 -8.62545002E-14  4.08652661E-17 -2.48287311E-16
 -8.56840306E-06 -5.14779032E-15  4.27536479E-14  1.12222827E-16  5.44164685E-18
  3.00981307E-13 -5.48869022E-13  1.48595248E-05 -2.93707324E-05  2.29711266E-14
 -1.87035744E-13 -8.59395438E-17  3.61941371E-16  5.17465715E-07 -8.97765852E-18
  1.74151163E-15  1.32211913E-16  5.22934266E-17 -1.67835734E-16 -2.69345208E-16
  6.21444336E-02 -2.57789142E-01  4.47969486E-01  3.29071984E-01  1.05734896E-02
 -3.79946883E-03  4.78738619E-10 -1.63881663E-10 -5.22679678E-02 -2.05003191E-10
  1.11522686E-10  5.62213712E-03 -6.74148586E-11  3.55850627E-11  1.86544269E-03
  2.77844006E-05  7.90481155E-14 -4.00793895E-14  3.45124235E-16  1.14396443E-15
 -1.42131807E-04  9.15637522E-14 -3.20385860E-14  3.04370064E-16  3.67204694E-16
  2.59745262E-04  5.98010475E-14 -7.85603742E-14 -7.42046023E-16 -3.14377468E-17
 -1.25857830E-12  8.35377713E-13  3.56069783E-04  2.66537359E-04 -1.20706790E-13
  2.20639836E-13  4.44446914E-17  1.61020984E-15 -5.42681758E-07  4.89101959E-16
  7.00527353E-16 -1.93797984E-16  1.93391347E-16  4.85718229E-16  1.99404281E-16
 -6.21446021E-02  2.57789428E-01 -4.47969991E-01 -3.29072356E-01 -1.05735014E-02
  3.79947266E-03  6.40384469E-10 -7.32719787E-10 -5.22680134E-02 -1.52075285E-10
  2.25005929E-10  5.62214109E-03 -5.31201218E-11  7.62917613E-11  1.86544428E-03
 -2.77844059E-05 -5.08993508E-14  8.42168182E-14  3.55869365E-16  2.29639370E-16
  1.42131831E-04 -6.93592169E-14  1.22344475E-13  2.95334618E-16 -4.35306950E-16
 -2.59745288E-04 -4.50968395E-14  1.27562674E-14 -4.36438100E-16  3.13357301E-16
 -6.53260112E-13  1.11397044E-12  3.56069749E-04 -2.66536857E-04  9.01901333E-14
  3.96023910E-14  2.23776967E-16  8.82731386E-16 -5.42690250E-07  1.19581021E-15
 -9.42409604E-16  5.67549744E-17  1.40656467E-16 -9.96516098E-16  1.19527680E-16
 -6.16624366E-02  2.56236019E-01 -4.48319801E-01 -3.29602424E-01 -1.05063745E-02
  3.41330258E-03  1.99355213E-10 -1.87233678E-10  3.96757060E-02 -3.18604702E-11
  1.39644374E-10 -3.41731271E-03 -1.18633205E-11  4.44082931E-11 -1.37402228E-03
 -4.66743160E-06  9.45106190E-15 -5.58724854E-14  5.04327118E-16  6.43634419E-16
  2.08171946E-05  2.74923413E-14 -6.19015496E-14 -7.91408139E-18  1.84018847E-16
 -2.31643010E-05 -2.73487165E-14 -3.66477598E-14  9.22957601E-16  3.38535742E-16
 -2.92870989E-14  9.90109093E-13  3.06140033E-05  4.48642031E-04  9.96181143E-14
  7.72437230E-14  7.30505327E-16 -5.15304438E-16  7.55786440E-06  9.96413743E-16
 -1.68093588E-16  4.43183066E-18 -5.57556246E-16  4.87329188E-16  2.51223128E-16
 -6.16623915E-02  2.56235731E-01 -4.48319296E-01 -3.29602053E-01 -1.05063625E-02
  3.41329828E-03 -2.66027683E-10 -3.71643431E-10 -3.96756466E-02  2.41910842E-11
  9.10947554E-11  3.41730618E-03  1.02647687E-11  3.16923032E-11  1.37402012E-03
 -4.66740028E-06  8.57651535E-15  2.82287467E-14  1.03939662E-15  8.87699530E-16
  2.08170339E-05  2.41184423E-14  4.22594837E-14 -2.79495020E-16  1.30905798E-15
 -2.31640076E-05 -2.47220118E-14  2.27249706E-14  6.82751293E-16  1.56182709E-15
 -9.64668176E-14  3.97796841E-13 -3.06144062E-05  4.48642332E-04  9.38258003E-14
 -4.14013140E-14 -5.94385440E-16 -6.35475077E-16 -7.55786381E-06 -9.55740079E-16
 -3.99699587E-16  7.48827440E-17 -2.71561584E-16 -2.05045519E-16  4.47285277E-16
 -1.41527842E-01  4.76934886E-01 -2.42614557E-02 -3.26665548E-02  2.42696915E-04
  1.50463567E-04  8.97895149E-10 -6.22033818E-10 -5.75299730E-01 -2.07066348E-10
  7.98282468E-11  2.37942433E-01 -7.26840016E-11  3.10181709E-11  7.83737867E-02
 -7.49857494E-05  8.04802976E-14 -2.44665301E-14 -5.95828435E-16  5.35312442E-16
 -1.83276126E-04  1.36543347E-13 -4.59407304E-14 -2.33352264E-17  3.27073570E-18
  2.07216404E-04 -3.98541115E-14 -4.90327022E-15  7.75898386E-16 -2.64901039E-16
 -7.43589943E-13  3.53970109E-14  1.61451737E-03 -6.35990471E-05  2.15570060E-13
 -2.45607822E-14  2.33798152E-16  5.59349204E-16 -2.67002113E-06  2.61451919E-15
 -9.41938406E-16 -1.56510700E-16 -3.15083134E-18 -2.77097799E-16 -2.39216832E-16
 -1.41527859E-01  4.76934945E-01 -2.42614575E-02 -3.26665579E-02  2.42696957E-04
  1.50463546E-04 -2.32426790E-10 -1.23997929E-10  5.75299724E-01  6.23054158E-11
  8.25464058E-11 -2.37942430E-01  2.15181125E-11  2.63696626E-11 -7.83737859E-02
 -7.49857472E-05  2.94025958E-14  3.11807515E-14 -3.54590946E-16 -8.04139558E-16
 -1.83276127E-04  6.89682041E-14  2.64668475E-14 -6.00404201E-16 -2.32138843E-16
  2.07216409E-04 -9.19683245E-14  5.33647837E-14  2.94160213E-16  2.67218058E-16
  1.67356584E-13  6.09778666E-13 -1.61451737E-03 -6.35990414E-05  3.24750290E-13
 -1.47090876E-13  4.04208035E-16  3.23004335E-16  2.67002094E-06 -1.81795152E-15
  7.94953053E-17 -1.41556333E-17 -4.67779342E-17 -5.37158197E-16  1.90523942E-16
 -2.21417827E-01  7.42381087E-01 -5.03501062E-03 -2.68004523E-02  9.27790994E-04
 -3.08928648E-04  5.90962860E-10  5.94533030E-10  1.16218755E-01 -5.59558205E-11
 -1.80877451E-10 -4.13667693E-02 -2.35790353E-11 -6.13351520E-11 -1.39281864E-02
  3.60866572E-05  2.76738001E-14  6.36721647E-14  2.30134484E-16 -1.12802324E-16
 -2.41041092E-05  1.08778393E-13  7.12482483E-14  2.15896475E-16  1.55505637E-17
  8.24387079E-05 -1.98932758E-13  8.32197691E-14  3.56615090E-17 -2.97488633E-16
  3.64905415E-13 -9.75565279E-13 -3.93164099E-05  1.17554998E-04  6.85326463E-13
 -2.03824250E-13 -9.05020688E-17 -3.42221635E-16  2.94568456E-06  3.53898209E-15
  2.96985059E-16  3.93942121E-17  5.97240012E-17 -2.05452457E-16 -2.44481525E-16
  2.21417839E-01 -7.42381126E-01  5.03500684E-03  2.68004508E-02 -9.27791125E-04
  3.08928733E-04 -1.91351266E-09  8.91524207E-10  1.16218859E-01  4.22815057E-10
 -2.48395163E-10 -4.13668110E-02  1.49290885E-10 -8.50956964E-11 -1.39282001E-02
 -3.60866709E-05  1.58601730E-13 -9.07375726E-14 -2.22926284E-16 -2.95280688E-16
  2.41040755E-05  2.75767573E-13 -1.22730903E-13  1.27513426E-16 -1.37254751E-16
 -8.24386751E-05 -8.43559317E-14 -4.92689154E-14 -1.16871433E-16  1.32093823E-16
  1.43609173E-12 -1.18862269E-12 -3.93166887E-05 -1.17554992E-04  4.51558685E-13
  6.33140624E-14 -1.14334800E-16 -1.60083055E-16  2.94568486E-06 -4.90518992E-15
  9.05506488E-16  1.83514680E-16  1.62130673E-17  1.00078564E-16 -2.43282437E-16
  1.74891724E-01 -5.85301860E-01 -5.25435068E-03  1.42095853E-02 -9.15233143E-04
  4.85621176E-04  1.56135706E-09 -1.05867424E-09 -4.55837844E-01 -2.82400444E-10
  1.48335491E-10  1.74405338E-01 -1.02800500E-10  5.65709410E-11  5.77592765E-02
 -5.87954110E-05  1.06486481E-13 -4.94947638E-14 -8.26151063E-16 -4.95632060E-17
 -1.47509915E-04  1.91021927E-13 -8.60352174E-14  1.47369567E-16 -2.97910599E-16
  1.27379908E-04 -5.86830274E-14 -1.07364972E-14  7.27283767E-16 -3.64461990E-16
 -6.78011753E-13  1.68184348E-13  1.15120297E-03  7.29577279E-05  3.18488659E-13
 -3.70207513E-14  4.00148543E-16 -1.69487397E-16 -7.79876304E-07  3.60902883E-15
 -1.32405059E-15 -5.69074253E-17 -2.74453333E-16 -1.08105075E-16  2.91349378E-16
  1.74891695E-01 -5.85301763E-01 -5.25435036E-03  1.42095825E-02 -9.15232995E-04
  4.85621126E-04 -2.31860563E-10 -3.32395261E-10  4.55837826E-01  8.99157575E-11
  9.00834761E-11 -1.74405332E-01  2.99354899E-11  3.09051608E-11 -5.77592744E-02
 -5.87954056E-05  4.11422962E-14  3.17643257E-14 -5.55628139E-17  4.24065463E-17
 -1.47509918E-04  1.02053436E-13  2.13367275E-14 -1.48985384E-16 -1.34496316E-16
  1.27379920E-04 -1.46876406E-13  8.72693971E-14  1.82694427E-16 -4.05906354E-16
  3.26759143E-13  5.04493132E-13 -1.15120297E-03  7.29577445E-05  5.11547875E-13
 -2.48137297E-13  1.26586168E-16  4.17845073E-16  7.79875895E-07 -2.53155953E-15
  6.65243527E-16 -4.04017127E-17  1.10221535E-16 -3.56232117E-16  1.84302843E-16
  5.68916650E-10 -2.20385042E-09  6.34031334E-10  5.22988340E-10  1.28036209E-11
  3.19938755E-12 -7.27082330E-01 -1.70516191E-01  6.57654184E-09  1.85938650E-01
  4.36065477E-02 -1.44454200E-09  6.43325604E-02  1.50873466E-02 -5.14684870E-10
  1.32138811E-12 -6.60983664E-05 -1.55014655E-05  1.92101559E-15  2.09331485E-15
 -2.43158635E-13 -8.42230825E-05 -1.97520951E-05  1.41318577E-15 -2.84556560E-16
  2.39197485E-12 -6.08355328E-05 -1.42672193E-05  2.72396740E-16  6.33929139E-16
  8.59598075E-04  2.01593937E-04  2.12883529E-12  3.83479532E-12  1.24982465E-04
  2.93110311E-05  3.52395065E-16  1.02368787E-15  7.01585452E-14 -6.43481806E-07
 -1.50910105E-07 -1.71633509E-16 -2.83464327E-16  7.39987667E-16 -4.09925895E-16
 -1.85877530E-10  1.68222137E-09 -5.43601382E-10 -4.41553808E-10 -1.13028335E-11
 -3.37642425E-12 -7.27082316E-01 -1.70516183E-01  7.58184572E-09  1.85938647E-01
  4.36065459E-02 -1.70340192E-09  6.43325592E-02  1.50873460E-02 -6.03967577E-10
 -1.39736066E-12  6.60983650E-05  1.55014648E-05 -1.08796077E-15 -5.90785344E-16
  1.55085079E-16  8.42230799E-05  1.97520937E-05 -1.25874815E-17  5.49343750E-18
 -2.13524417E-12  6.08355345E-05  1.42672201E-05  1.27351331E-17  5.34240776E-16
  8.59598063E-04  2.01593931E-04  6.86298395E-13 -3.90211439E-12 -1.24982472E-04
 -2.93110347E-05  8.46753708E-17 -2.84121182E-16  7.24705656E-14 -6.43481757E-07
 -1.50910078E-07  2.81553887E-16 -6.15092498E-18  3.15184289E-16 -3.69775057E-17
 -1.12989151E-09  4.10819679E-09 -8.38162920E-10 -7.28489282E-10 -1.55251921E-11
 -1.04770101E-11  1.70516183E-01 -7.27082338E-01 -1.40731599E-08 -4.36065458E-02
  1.85938652E-01  2.90729074E-09 -1.50873460E-02  6.43325610E-02  1.04506905E-09
 -2.67773167E-12  1.55014647E-05 -6.60983671E-05 -1.71277198E-15 -3.03263967E-16
  4.71711881E-13  1.97520937E-05 -8.42230838E-05 -1.98595877E-15  1.93454015E-15
 -4.83730316E-12  1.42672201E-05 -6.08355320E-05  1.17034866E-15 -5.91552489E-16
 -2.01593929E-04  8.59598080E-04 -5.48331581E-12 -8.12930647E-12 -2.93110345E-05
  1.24982461E-04 -1.27993650E-15 -6.33601347E-16 -1.48741288E-13  1.50910077E-07
 -6.43481833E-07  5.06431127E-16  8.39395888E-17 -2.28379215E-16  2.41695615E-16
  1.19393852E-09 -3.55055925E-09  1.19580744E-09  9.69473828E-10  2.46145168E-11
  6.89296480E-12  1.70516190E-01 -7.27082308E-01 -1.57470022E-08 -4.36065474E-02
  1.85938645E-01  3.52239543E-09 -1.50873465E-02  6.43325586E-02  1.24963998E-09
  2.87843262E-12 -1.55014654E-05  6.60983644E-05  2.39497801E-16  4.28660724E-16
  2.66867189E-14 -1.97520949E-05  8.42230786E-05 -3.13691090E-16 -5.03188379E-16
  4.34448636E-12 -1.42672192E-05  6.08355354E-05 -6.34568770E-16 -5.38348165E-16
 -2.01593935E-04  8.59598059E-04 -1.44943029E-12  7.74389622E-12  2.93110312E-05
 -1.24982475E-04  4.93793783E-16  1.36218391E-15 -1.47493288E-13  1.50910104E-07
 -6.43481729E-07  1.59522816E-16 -4.62753749E-16  6.51756674E-18  5.68106775E-16
  3.91625774E-02 -1.34775423E-01  3.27710041E-02  2.77150531E-02  6.43300133E-04
  5.46533789E-04  7.06195158E-09 -4.70166244E-09  7.34864731E-01 -1.91336744E-09
  1.60482963E-09 -1.60691202E-01 -6.56935904E-10  5.36933908E-10 -5.72163750E-02
  1.37447978E-04  6.48200010E-13 -4.99500957E-13  3.31081623E-16  1.38131307E-15
 -6.42637620E-06  6.20106394E-13 -1.35322923E-13  5.02561265E-16  2.86289998E-16
  2.19426359E-04  1.28745519E-12 -2.08931961E-12  5.37222089E-17  4.10148537E-16
 -1.00372124E-11  1.08144818E-11  1.42891558E-04  3.84593986E-04 -3.46108093E-12
  6.24915575E-12  5.13889145E-17 -2.58118887E-16  7.44194410E-06 -3.11950972E-15
  1.82911616E-14 -1.35440360E-16 -1.61449262E-16  2.06668864E-16 -1.84592082E-16
 -3.91625742E-02  1.34775419E-01 -3.27710036E-02 -2.77150525E-02 -6.43300130E-04
 -5.46533789E-04  1.41503451E-08 -2.18212483E-08  7.34864730E-01 -3.41616377E-09
  5.18848681E-09 -1.60691201E-01 -1.19106412E-09  1.81302434E-09 -5.72163747E-02
 -1.37447978E-04 -1.24359107E-12  1.91429855E-12 -1.13361514E-15  3.62360284E-16
  6.42637681E-06 -1.79346487E-12  2.94225304E-12 -1.92356519E-16 -2.93972916E-16
 -2.19426360E-04 -4.75048768E-13  1.31411849E-13  2.04801405E-16  5.49675929E-16
 -1.42533945E-11  2.06301066E-11  1.42891565E-04 -3.84593985E-04  1.64134070E-13
  1.68661557E-12  4.30218105E-16 -8.71680494E-16  7.44194410E-06  2.12082823E-14
 -4.16069523E-14 -1.02740950E-16  2.67385328E-16 -2.66148266E-16 -6.49357753E-17
  8.17056444E-10 -2.12139024E-09  5.31804518E-10  4.48969853E-10  9.95155673E-12
  2.61556873E-12  6.98748604E-01 -2.61426989E-01  7.08312348E-09 -1.57939340E-01
  5.90907887E-02 -1.65910058E-09 -5.56275138E-02  2.08122541E-02 -5.84089714E-10
  1.21489937E-12  6.30410547E-05 -2.35859264E-05 -1.11539404E-15 -3.90307754E-16
  2.68431217E-13  1.21182122E-04 -4.53385911E-05 -9.56052572E-16  6.65003428E-16
  1.43483446E-12 -8.08162530E-05  3.02362672E-05  1.83623156E-16 -1.55932099E-16
 -4.94374909E-04  1.84963439E-04 -1.07585871E-12  2.94290677E-12  3.30293647E-04