HF file generated by AutoMR of MOKIT
Stability RHF                                                         Gen
Number of atoms                            I                2
Info1-9                                    I   N=           9
           6           5           0           0           0         110
           7           1           2
Charge                                     I                0
Multiplicity                               I                1
Number of electrons                        I               48
Number of alpha electrons                  I               24
Number of beta electrons                   I               24
Number of basis functions                  I               90
Number of independent functions            I               90
Number of point charges in /Mol/           I                0
Number of translation vectors              I                0
Atomic numbers                             I   N=           2
          24          24
Nuclear charges                            R   N=           2
  2.40000000E+01  2.40000000E+01
Current cartesian coordinates              R   N=           6
  0.00000000E+00  0.00000000E+00  0.00000000E+00  0.00000000E+00  0.00000000E+00
  7.55890453E+00
Force Field                                I                0
Int Atom Types                             I   N=           2
           0           0
MM charges                                 R   N=           2
  0.00000000E+00  0.00000000E+00
Integer atomic weights                     I   N=           2
          52          52
Real atomic weights                        R   N=           2
  5.19405097E+01  5.19405097E+01
Atom fragment info                         I   N=           2
           1           2
Atom residue num                           I   N=           2
           0           0
Nuclear spins                              I   N=           2
           0           0
Nuclear ZEff                               R   N=           2
 -2.47200000E+01 -2.47200000E+01
Nuclear QMom                               R   N=           2
  0.00000000E+00  0.00000000E+00
Nuclear GFac                               R   N=           2
  0.00000000E+00  0.00000000E+00
MicOpt                                     I   N=           2
          -1          -1
Number of contracted shells                I               30
Number of primitive shells                 I               72
Pure/Cartesian d shells                    I                0
Pure/Cartesian f shells                    I                0
Highest angular momentum                   I                3
Largest degree of contraction              I                8
Shell types                                I   N=          30
           0           0           0           0           0           0
           1           1           1          -2          -2          -2
           1          -2          -3           0           0           0
           0           0           0           1           1           1
          -2          -2          -2           1          -2          -3
Number of primitives per shell             I   N=          30
           8           4           2           1           1           1
           6           3           1           4           1           1
           1           1           1           8           4           2
           1           1           1           6           3           1
           4           1           1           1           1           1
Shell to atom map                          I   N=          30
           1           1           1           1           1           1
           1           1           1           1           1           1
           1           1           1           2           2           2
           2           2           2           2           2           2
           2           2           2           2           2           2
Primitive exponents                        R   N=          72
  2.54477807E+05  3.81317971E+04  8.67529306E+03  2.45500998E+03  7.99162178E+02
  2.86900215E+02  1.11254132E+02  4.38641526E+01  2.79326692E+02  8.62747324E+01
  1.35557561E+01  5.69781128E+00  8.56365826E+00  1.39882968E+00  5.72881711E-01
  9.00961713E-02  3.41258851E-02  1.30643989E+03  3.09253114E+02  9.89962740E+01
  3.67569165E+01  1.45666571E+01  5.87399374E+00  2.28909997E+01  3.08550018E+00
  1.21323291E+00  4.49316807E-01  4.37200745E+01  1.23912427E+01  4.26394420E+00
  1.55252218E+00  5.37619295E-01  1.64931731E-01  1.20675000E-01  5.10000000E-02
  1.14700000E+00  2.54477807E+05  3.81317971E+04  8.67529306E+03  2.45500998E+03
  7.99162178E+02  2.86900215E+02  1.11254132E+02  4.38641526E+01  2.79326692E+02
  8.62747324E+01  1.35557561E+01  5.69781128E+00  8.56365826E+00  1.39882968E+00
  5.72881711E-01  9.00961713E-02  3.41258851E-02  1.30643989E+03  3.09253114E+02
  9.89962740E+01  3.67569165E+01  1.45666571E+01  5.87399374E+00  2.28909997E+01
  3.08550018E+00  1.21323291E+00  4.49316807E-01  4.37200745E+01  1.23912427E+01
  4.26394420E+00  1.55252218E+00  5.37619295E-01  1.64931731E-01  1.20675000E-01
  5.10000000E-02  1.14700000E+00
Contraction coefficients                   R   N=          72
  2.42904776E-04  1.88435236E-03  9.80095844E-03  3.98250087E-02  1.29405437E-01
  3.06290018E-01  4.34628350E-01  2.24695629E-01 -2.43633579E-02 -1.15114954E-01
  5.50922663E-01  5.36113547E-01 -3.71230177E-01  1.16811695E+00  1.00000000E+00
  1.00000000E+00  1.00000000E+00  2.82928007E-03  2.27766292E-02  1.05645619E-01
  2.99499449E-01  4.77062454E-01  2.76542344E-01 -1.94121061E-02  3.86188758E-01
  6.76239089E-01  1.00000000E+00  2.20932593E-02  1.28014388E-01  3.86529103E-01
  6.41033014E-01  1.00000000E+00  1.00000000E+00  1.00000000E+00  1.00000000E+00
  1.00000000E+00  2.42904776E-04  1.88435236E-03  9.80095844E-03  3.98250087E-02
  1.29405437E-01  3.06290018E-01  4.34628350E-01  2.24695629E-01 -2.43633579E-02
 -1.15114954E-01  5.50922663E-01  5.36113547E-01 -3.71230177E-01  1.16811695E+00
  1.00000000E+00  1.00000000E+00  1.00000000E+00  2.82928007E-03  2.27766292E-02
  1.05645619E-01  2.99499449E-01  4.77062454E-01  2.76542344E-01 -1.94121061E-02
  3.86188758E-01  6.76239089E-01  1.00000000E+00  2.20932593E-02  1.28014388E-01
  3.86529103E-01  6.41033014E-01  1.00000000E+00  1.00000000E+00  1.00000000E+00
  1.00000000E+00  1.00000000E+00
Coordinates of each shell                  R   N=          90
  0.00000000E+00  0.00000000E+00  0.00000000E+00  0.00000000E+00  0.00000000E+00
  0.00000000E+00  0.00000000E+00  0.00000000E+00  0.00000000E+00  0.00000000E+00
  0.00000000E+00  0.00000000E+00  0.00000000E+00  0.00000000E+00  0.00000000E+00
  0.00000000E+00  0.00000000E+00  0.00000000E+00  0.00000000E+00  0.00000000E+00
  0.00000000E+00  0.00000000E+00  0.00000000E+00  0.00000000E+00  0.00000000E+00
  0.00000000E+00  0.00000000E+00  0.00000000E+00  0.00000000E+00  0.00000000E+00
  0.00000000E+00  0.00000000E+00  0.00000000E+00  0.00000000E+00  0.00000000E+00
  0.00000000E+00  0.00000000E+00  0.00000000E+00  0.00000000E+00  0.00000000E+00
  0.00000000E+00  0.00000000E+00  0.00000000E+00  0.00000000E+00  0.00000000E+00
  0.00000000E+00  0.00000000E+00  7.55890453E+00  0.00000000E+00  0.00000000E+00
  7.55890453E+00  0.00000000E+00  0.00000000E+00  7.55890453E+00  0.00000000E+00
  0.00000000E+00  7.55890453E+00  0.00000000E+00  0.00000000E+00  7.55890453E+00
  0.00000000E+00  0.00000000E+00  7.55890453E+00  0.00000000E+00  0.00000000E+00
  7.55890453E+00  0.00000000E+00  0.00000000E+00  7.55890453E+00  0.00000000E+00
  0.00000000E+00  7.55890453E+00  0.00000000E+00  0.00000000E+00  7.55890453E+00
  0.00000000E+00  0.00000000E+00  7.55890453E+00  0.00000000E+00  0.00000000E+00
  7.55890453E+00  0.00000000E+00  0.00000000E+00  7.55890453E+00  0.00000000E+00
  0.00000000E+00  7.55890453E+00  0.00000000E+00  0.00000000E+00  7.55890453E+00
Constraint Structure                       R   N=           6
  0.00000000E+00  0.00000000E+00  0.00000000E+00  0.00000000E+00  0.00000000E+00
  7.55890453E+00
Num ILSW                                   I              100
ILSW                                       I   N=         100
           0           0           0           0           2           1
           0           0           0           0           0          -1
           0           0           0           0           0           0
           0           0           0           0           0           0
           1           1           0           0           0           0
           0           0      100000           0          -1           0
           0           0           0           0           0           0
           0           0           0           1           0           0
           0           0           1           0           0           0
           0           0           4          40           0           0
           0           0           0           0           0           0
           0           0           0           0           0           0
           0           0           0           0           0           0
           0           0           0           0           0           0
           0           0           0           0           0           0
           0           0           0           0           0           0
           0           0           0           0
Num RLSW                                   I               40
RLSW                                       R   N=          40
  1.00000000E+00  1.00000000E+00  1.00000000E+00  1.00000000E+00  1.00000000E+00
  0.00000000E+00  0.00000000E+00  1.00000000E+00  0.00000000E+00  0.00000000E+00
  0.00000000E+00  0.00000000E+00  1.00000000E+00  0.00000000E+00  0.00000000E+00
  0.00000000E+00  0.00000000E+00  1.00000000E+00  0.00000000E+00  0.00000000E+00
  0.00000000E+00  0.00000000E+00  1.00000000E+00  0.00000000E+00  0.00000000E+00
  0.00000000E+00  0.00000000E+00  1.00000000E+00  0.00000000E+00  0.00000000E+00
  0.00000000E+00  0.00000000E+00  1.00000000E+00  0.00000000E+00  0.00000000E+00
  0.00000000E+00  0.00000000E+00  0.00000000E+00  1.00000000E+00  1.00000000E+00
ECP-MxAtEC                                 I           250000
ECP-MaxLECP                                I               10
ECP-MaxAtL                                 I          2250000
ECP-MxTECP                                 I         11250000
ECP-LenNCZ                                 I                0
ECP-KFirst                                 I   N=          20
           0           0           0           0           0           0
           0           0           0           0           0           0
           0           0           0           0           0           0
           0           0
ECP-KLast                                  I   N=          20
           0           0           0           0           0           0
           0           0           0           0           0           0
           0           0           0           0           0           0
           0           0
ECP-LMax                                   I   N=           2
           0           0
ECP-LPSkip                                 I   N=           2
           1           1
ECP-RNFroz                                 R   N=           2
  0.00000000E+00  0.00000000E+00
ECP-NLP                                    I                0
ECP-CLP1                                   R      0.000000000000000E+00
ECP-CLP2                                   R      0.000000000000000E+00
ECP-ZLP                                    R      0.000000000000000E+00
MxBond                                     I                1
NBond                                      I   N=           2
           0           0
IBond                                      I   N=           2
           0           0
RBond                                      R   N=           2
  0.00000000E+00  0.00000000E+00
Virial Ratio                               R      2.000025260610248E+00
SCF Energy                                 R     -2.086670643535294E+03
Total Energy                               R     -2.086670643535294E+03
S**2                                       R      5.898514692580861E+00
S**2 after annihilation                    R      1.824398861277378E+01
RMS Density                                R      1.915882148184216E-09
External E-field                           R   N=          35
  0.00000000E+00  0.00000000E+00  0.00000000E+00  0.00000000E+00  0.00000000E+00
  0.00000000E+00  0.00000000E+00  0.00000000E+00  0.00000000E+00  0.00000000E+00
  0.00000000E+00  0.00000000E+00  0.00000000E+00  0.00000000E+00  0.00000000E+00
  0.00000000E+00  0.00000000E+00  0.00000000E+00  0.00000000E+00  0.00000000E+00
  0.00000000E+00  0.00000000E+00  0.00000000E+00  0.00000000E+00  0.00000000E+00
  0.00000000E+00  0.00000000E+00  0.00000000E+00  0.00000000E+00  0.00000000E+00
  0.00000000E+00  0.00000000E+00  0.00000000E+00  0.00000000E+00  0.00000000E+00
IOpCl                                      I                0
IROHF                                      I                0
Alpha Orbital Energies                     R   N=          90
  2.00000000E+00  2.00000000E+00  2.00000000E+00  2.00000000E+00  2.00000000E+00
  2.00000000E+00  2.00000000E+00  2.00000000E+00  2.00000000E+00  2.00000000E+00
  2.00000000E+00  2.00000000E+00  2.00000000E+00  2.00000000E+00  2.00000000E+00
  2.00000000E+00  2.00000000E+00  2.00000000E+00  1.70374447E+00  1.04680391E+00
  1.03085708E+00  1.03085691E+00  1.00556691E+00  1.00556685E+00  9.94433145E-01
  9.94433089E-01  9.69143094E-01  9.69142922E-01  9.53196093E-01  2.96255527E-01
  0.00000000E+00  0.00000000E+00  0.00000000E+00  0.00000000E+00  0.00000000E+00
  0.00000000E+00  0.00000000E+00  0.00000000E+00  0.00000000E+00  0.00000000E+00
  0.00000000E+00  0.00000000E+00  0.00000000E+00  0.00000000E+00  0.00000000E+00
  0.00000000E+00  0.00000000E+00  0.00000000E+00  0.00000000E+00  0.00000000E+00
  0.00000000E+00  0.00000000E+00  0.00000000E+00  0.00000000E+00  0.00000000E+00
  0.00000000E+00  0.00000000E+00  0.00000000E+00  0.00000000E+00  0.00000000E+00
  0.00000000E+00  0.00000000E+00  0.00000000E+00  0.00000000E+00  0.00000000E+00
  0.00000000E+00  0.00000000E+00  0.00000000E+00  0.00000000E+00  0.00000000E+00
  0.00000000E+00  0.00000000E+00  0.00000000E+00  0.00000000E+00  0.00000000E+00
  0.00000000E+00  0.00000000E+00  0.00000000E+00  0.00000000E+00  0.00000000E+00
  0.00000000E+00  0.00000000E+00  0.00000000E+00  0.00000000E+00  0.00000000E+00
  0.00000000E+00  0.00000000E+00  0.00000000E+00  0.00000000E+00  0.00000000E+00
Alpha MO coefficients                      R   N=        8100
  9.88017044E-01  6.89554911E-03 -2.25032454E-03  1.45701924E-03 -4.61114834E-04
  2.20465495E-04  0.00000000E+00  0.00000000E+00 -2.24164257E-06  0.00000000E+00
  0.00000000E+00 -1.50592045E-06  0.00000000E+00  0.00000000E+00  6.07652875E-06
 -2.16304079E-06  0.00000000E+00  2.05840512E-11  1.71397974E-10  1.67461414E-10
  6.41445310E-06  0.00000000E+00  1.58121545E-11  1.22617650E-10  1.28616651E-10
 -1.45425170E-05  0.00000000E+00  0.00000000E+00  6.57601957E-11  6.68387494E-11
  0.00000000E+00  0.00000000E+00 -1.37239611E-05  6.26743908E-06  0.00000000E+00
  0.00000000E+00  6.39704098E-12  0.00000000E+00 -1.73000804E-07  0.00000000E+00
  0.00000000E+00 -3.78016434E-13  0.00000000E+00  0.00000000E+00  0.00000000E+00
 -1.39501745E-01 -9.72962189E-04  3.22563383E-04 -2.13820254E-04  6.16219467E-05
 -4.24913409E-05  0.00000000E+00  0.00000000E+00  8.80541056E-07  0.00000000E+00
  0.00000000E+00 -5.97124040E-06  0.00000000E+00  0.00000000E+00  1.49257121E-05
  2.17813066E-06  0.00000000E+00  0.00000000E+00 -1.69856449E-11 -1.84760689E-11
 -7.13919515E-06  0.00000000E+00  0.00000000E+00 -1.60792050E-11 -1.46490538E-11
  7.78552262E-06  0.00000000E+00  0.00000000E+00 -6.97439125E-12  0.00000000E+00
  0.00000000E+00  0.00000000E+00 -1.42702793E-05  3.04786602E-05  0.00000000E+00
  0.00000000E+00 -4.61880215E-13  0.00000000E+00 -5.18440630E-07  0.00000000E+00
  0.00000000E+00 -3.90627508E-13  0.00000000E+00  0.00000000E+00  0.00000000E+00
  1.39502249E-01  9.74283279E-04 -3.12704337E-04  1.97294756E-04 -6.87329855E-05
  1.93032378E-05  0.00000000E+00  0.00000000E+00 -1.56225883E-06  0.00000000E+00
  0.00000000E+00  5.78025850E-06  0.00000000E+00  0.00000000E+00 -1.37820852E-05
  1.64350977E-06  0.00000000E+00  0.00000000E+00  3.06330506E-11  2.97215967E-11
 -5.58140447E-06  0.00000000E+00  0.00000000E+00  1.99589988E-11  2.22861257E-11
  3.91208622E-06  0.00000000E+00  0.00000000E+00  1.11082192E-11  1.24922557E-11
  0.00000000E+00  0.00000000E+00  1.08965242E-05  3.35244655E-05  0.00000000E+00
  0.00000000E+00  1.32790562E-12  0.00000000E+00  4.89671751E-07  0.00000000E+00
  0.00000000E+00 -1.00956386E-13  0.00000000E+00  0.00000000E+00  0.00000000E+00
  9.88017115E-01  6.89573571E-03 -2.24893246E-03  1.45468584E-03 -4.62118828E-04
  2.17191535E-04  0.00000000E+00 -2.88655337E-11  2.58660313E-06  0.00000000E+00
  1.01616687E-11 -1.53321922E-07  0.00000000E+00  0.00000000E+00 -2.02316550E-06
 -1.62346262E-06  0.00000000E+00 -2.11021274E-11  1.66205286E-10  1.73176349E-10
  4.61837932E-06  0.00000000E+00 -1.61160981E-11  1.32663545E-10  1.32434553E-10
 -1.28908998E-05  0.00000000E+00  0.00000000E+00  6.24115641E-11  6.92866214E-11
  0.00000000E+00  0.00000000E+00  1.01705554E-05  1.53042944E-05  0.00000000E+00
  0.00000000E+00  6.54715205E-12  0.00000000E+00  3.06641904E-08  0.00000000E+00
  0.00000000E+00  2.17645211E-12  0.00000000E+00  0.00000000E+00  0.00000000E+00
 -2.83749172E-01  9.43183287E-01  3.01355550E-02 -7.81468363E-03  1.97518654E-03
 -9.34558867E-04 -3.56570408E-10  6.67852636E-10 -4.07898790E-04 -1.55604446E-10
 -2.89257876E-10 -2.44352651E-05  3.21559129E-10  6.50944796E-10 -2.83855348E-05
 -1.01049035E-04  2.75027736E-09  1.81623446E-08  5.92404100E-08  1.37419535E-07
 -1.24081967E-04  2.79566475E-09  1.53272170E-08  5.18228447E-08  1.20139677E-07
  2.10918776E-05  1.42581301E-09  8.62546627E-09  2.50013451E-08  5.75517536E-08
 -3.66730307E-10 -6.15310219E-10  6.90175053E-05  9.11334745E-06  7.34209487E-11
  9.87565899E-10  3.67501344E-09  1.01492102E-08  1.58992798E-06  0.00000000E+00
 -2.37657436E-11 -1.58225402E-10 -1.22531150E-10  0.00000000E+00 -6.13628860E-12
  1.29629159E-01 -4.30892606E-01 -1.37824970E-02  3.59759417E-03 -8.94820803E-04
  4.68993620E-04 -6.63358951E-10  2.68383689E-09 -1.89502428E-04 -7.93070260E-11
  0.00000000E+00  5.80116073E-06 -8.37817273E-11  1.62800628E-10 -5.81437052E-05
  3.45306302E-05  9.76089659E-10  8.04792819E-09 -2.56883919E-08 -5.90097421E-08
  7.29530936E-05  9.61409807E-10  6.95244153E-09 -2.28942476E-08 -5.24474166E-08
 -3.33910633E-05  4.07140208E-10  3.74945417E-09 -1.08042443E-08 -2.43470113E-08
  2.80416423E-10 -1.51539852E-10  7.33563767E-05 -1.05407968E-04 -1.02068596E-10
  4.36039813E-10 -1.45884866E-09 -4.59094453E-09  2.21651243E-06  2.09158788E-11
 -2.05983651E-11 -1.72604710E-10 -5.55272872E-11 -5.40045669E-12 -5.31847499E-12
 -1.29631009E-01  4.30886604E-01  1.37441742E-02 -3.52811711E-03  9.13840336E-04
 -3.62757966E-04 -1.35369099E-10  3.68947226E-10 -1.81536603E-04 -1.63206556E-10
 -3.12384968E-10 -3.70744798E-05  2.05444585E-10  3.00652200E-10  5.60389393E-05
 -6.38211234E-05  1.45595412E-09  8.40293107E-09  2.88302166E-08  6.79315798E-08
 -3.17657803E-05  1.43397027E-09  6.98303933E-09  2.50258825E-08  5.83614847E-08
 -2.66118572E-05  5.42183148E-10  4.32717697E-09  1.21817443E-08  2.88297622E-08
 -5.17933994E-11  7.02270332E-11 -3.23627024E-05 -1.50486482E-04 -4.57356436E-11
  1.01740685E-09  1.84879103E-09  4.71676339E-09 -1.55000191E-06  0.00000000E+00
 -1.23489778E-11 -2.05283591E-10 -5.93002037E-11  0.00000000E+00 -3.18849236E-12
 -2.83750017E-01  9.43180542E-01  3.01180485E-02 -7.78293182E-03  1.98386361E-03
 -8.86034720E-04  1.72489796E-09 -5.80771245E-09  4.04274252E-04 -3.17746839E-11
  2.47454629E-10  4.40221449E-05  1.49576486E-10 -4.32231532E-10 -2.37777143E-05
 -1.14427762E-04 -2.38823997E-09 -1.79064643E-08  6.06386369E-08  1.41318231E-07
 -1.05263797E-04 -2.24708448E-09 -1.54097722E-08  5.26213201E-08  1.22587653E-07
 -6.31949526E-06 -1.00841298E-09 -8.40676690E-09  2.57985157E-08  5.98296824E-08
  0.00000000E+00 -5.48100587E-10 -2.07187683E-05 -1.07790892E-04  8.80327732E-11
 -6.88456146E-10  3.61236516E-09  1.01237290E-08  1.30610606E-07 -5.02050118E-11
  5.20481738E-11  3.06778852E-10  1.29158280E-10  1.51387812E-12 -2.14550693E-13
 -1.10505326E-04  3.84849450E-04  3.58326046E-05 -7.05696566E-05 -8.18629816E-05
  4.91133854E-04 -1.69151364E-05 -1.00371807E-04  7.77719436E-01 -3.67851790E-07
 -2.18127936E-06  1.69778280E-02  7.37496330E-08  4.35601676E-07 -3.58833360E-03
 -3.19416869E-05  8.72423466E-10  6.96844619E-09  5.07317682E-10  1.88103983E-09
 -4.58950825E-05 -5.58734270E-10 -5.16230911E-09  2.50396812E-10  1.05562632E-09
  1.06656114E-04  1.02883041E-09  9.20606184E-09  5.07490887E-10  1.56802239E-10
 -2.14946720E-08 -1.27228539E-07  1.36743836E-03  2.46832180E-04 -3.92135579E-09
 -2.80328978E-08 -2.30940107E-12  0.00000000E+00  3.92532871E-06 -1.03447409E-11
 -8.56247304E-11 -5.46417257E-11  4.10590272E-11  2.67100062E-12 -1.34091534E-13
  8.67646361E-05 -3.07302906E-04 -4.40749967E-05  8.63494668E-05  5.94120105E-05
 -4.90396285E-04  8.58844729E-06  7.91960710E-05  6.16122612E-01  1.86929140E-07
  1.72165767E-06  1.34744387E-02 -3.81514037E-08 -3.45426086E-07 -2.90975271E-03
  1.87175502E-05  4.97581132E-10  5.70168456E-09 -5.13160466E-10 -1.57247202E-09
  5.84649229E-05 -5.60118127E-10 -4.80946950E-09 -2.63213988E-10 -8.82139360E-10
 -1.32431785E-04  1.26624240E-09  1.01507441E-08 -1.30827571E-10 -1.16487271E-10
  1.23329227E-08  1.03432736E-07  1.20694599E-03 -2.31263054E-04 -4.87076407E-09
 -3.05562315E-08  3.46410162E-12  0.00000000E+00  4.22823534E-06  1.85753645E-11
  1.12619157E-10 -9.95772959E-11  3.42140744E-11 -4.79613849E-12  1.36544681E-12
  9.09659286E-05 -2.94362279E-04  4.01749542E-05 -7.71519774E-05  8.86437622E-05
  5.37189318E-05  1.34042843E-05  8.03208101E-05 -6.16148798E-01  2.90207334E-07
  1.74212522E-06 -1.33444268E-02 -5.64910582E-08 -3.40017251E-07  2.54994415E-03
  5.40947768E-05 -6.04873118E-10 -4.75318908E-09 -9.17755988E-10 -1.62624106E-09
 -6.02556329E-05  1.60698495E-10  2.67648293E-10 -2.16795026E-10 -9.28873323E-10
  1.25025455E-04  1.68141182E-10  3.23121813E-09 -4.12920913E-10 -1.85748393E-10
  1.56843980E-08  8.83286679E-08 -5.42952115E-04 -3.94333742E-05 -1.24451518E-09
 -1.20603909E-08 -4.04145188E-12  0.00000000E+00  1.77764694E-06  0.00000000E+00
 -1.38852911E-10  1.39567904E-10 -2.09706863E-11  0.00000000E+00 -3.92380577E-13
  1.13838729E-04 -3.74614775E-04  3.09101636E-05 -5.89594132E-05  1.05022061E-04
 -6.00715563E-05  1.10096477E-05  1.01055496E-04  7.77740181E-01  2.38742680E-07
  2.19275412E-06  1.68748297E-02 -4.68219128E-08 -4.30167597E-07 -3.30327970E-03
  5.99650083E-05  5.15780509E-10  6.12285225E-09 -1.13016315E-09 -2.24621009E-09
 -4.81568360E-05  0.00000000E+00 -1.50518524E-09 -5.42709253E-10 -1.29047458E-09
  9.73066554E-05 -4.69282212E-10 -1.33653029E-09 -2.88559665E-10 -2.28135058E-10
  1.27980292E-08  1.14990932E-07  8.41405754E-04 -9.48598030E-05  2.13723029E-09
  5.39741176E-09 -2.19393102E-12  0.00000000E+00 -8.32025985E-07 -9.47858497E-12
 -1.10818638E-10 -3.72765645E-11  2.83990718E-11  2.44736012E-12  8.45992735E-13
 -1.25416462E-08  4.28796600E-08  1.61005085E-09 -3.03204824E-09 -1.11352425E-08
  4.18645478E-08 -5.10810724E-01  7.74492226E-01  8.90510489E-05 -1.10986352E-02
  1.68277754E-02  1.94125339E-06  2.20454669E-03 -3.34254463E-03 -4.02088765E-07
 -5.42352013E-09  2.99585751E-05 -4.54226802E-05  2.40275862E-13 -1.93605349E-11
 -2.74332555E-09 -1.90160044E-05  2.88341802E-05 -1.82089098E-10  0.00000000E+00
  6.15583996E-09  3.15187732E-05 -4.77959918E-05 -3.02155109E-11  0.00000000E+00
 -6.29886170E-04  9.55044311E-04  1.40418763E-07  2.31862824E-08 -1.02955837E-04
  1.56124373E-04  4.81438533E-11  0.00000000E+00  3.63136147E-10 -2.04897493E-07
  3.10979131E-07 -7.00890302E-12  0.00000000E+00  2.18806651E-10  3.20586093E-10
  5.44386219E-09 -1.99825137E-08 -5.23708407E-09  9.41982094E-09  2.41480808E-09
 -4.07622067E-08  1.93620070E-01 -2.93669930E-01  3.47832148E-05  4.21558026E-03
 -6.39390425E-03  7.65070326E-07 -8.58353893E-04  1.30188013E-03 -1.74625527E-07
  1.00457057E-09  1.32985539E-05 -2.01689385E-05  6.20876873E-10  3.35468216E-10
  6.97214206E-09 -1.61150738E-05  2.44369574E-05 -3.56122082E-10  4.59508069E-11
 -1.44806853E-08  4.17936385E-05 -6.33719108E-05  9.71441596E-11  0.00000000E+00
  2.75523720E-04 -4.17873552E-04  8.58546961E-08 -1.77883831E-08 -1.35252564E-04
  2.05083103E-04  3.92740211E-11  0.00000000E+00  4.76897481E-10  5.52312693E-07
 -8.37923729E-07 -4.70966352E-12  0.00000000E+00 -1.39282358E-10 -1.56298883E-10
 -1.20242264E-08  4.09998949E-08  2.62811703E-10 -3.47592253E-09 -7.34682675E-09
  4.00245132E-08  7.74548697E-01  5.10759424E-01  8.28573245E-05  1.68290081E-02
  1.10975299E-02  1.80558473E-06 -3.34277738E-03 -2.20433214E-03 -3.73027370E-07
 -3.86674528E-09 -4.54261127E-05 -2.99564494E-05 -1.38176547E-11  0.00000000E+00
 -1.82594373E-09  2.88327223E-05  1.90174209E-05  9.20782227E-12  0.00000000E+00
  5.23106880E-09 -4.77876106E-05 -3.15259234E-05 -2.03597030E-11  0.00000000E+00
  9.55097680E-04  6.29834564E-04  1.29598759E-07  2.16659205E-08  1.56097868E-04
  1.02979200E-04  4.23561478E-12  0.00000000E+00  2.93407541E-10  3.10695751E-07
  2.05074690E-07  4.07004693E-12  0.00000000E+00 -4.27514733E-10  9.04937675E-10
  4.11385640E-09 -1.52030630E-08 -4.59305219E-09  7.27833931E-09  3.73897742E-09
 -3.66455494E-08 -2.93520959E-01 -1.93755336E-01  2.88742200E-05 -6.39067310E-03
 -4.21851975E-03  6.34873415E-07  1.30124209E-03  8.58932049E-04 -1.46085498E-07
  5.82428868E-10 -2.01609839E-05 -1.33060515E-05  1.02084898E-10  5.55362947E-11
  6.71773336E-09  2.44334734E-05  1.61181279E-05  2.07873232E-11 -1.80498785E-11
 -1.40422431E-08 -6.33701954E-05 -4.17948259E-05 -1.56600718E-11  1.43537175E-11
 -4.17698340E-04 -2.75681272E-04  7.58221099E-08 -1.65587526E-08  2.05077330E-04
  1.35256842E-04 -4.26741639E-11  0.00000000E+00  4.04787742E-10 -8.37983971E-07
 -5.52270184E-07  1.62037195E-12  0.00000000E+00  1.46679167E-10 -2.47843520E-10
 -4.99583515E-09  1.55540039E-08 -3.48715083E-09  8.85226696E-09 -7.04981890E-09
 -2.06687688E-08 -1.93452239E-01  2.93789599E-01  3.43296622E-05 -4.19161506E-03
  6.36568502E-03  7.39742982E-07  8.04550073E-04 -1.22188581E-03 -1.31267400E-07
 -4.98724719E-09  8.75156843E-06 -1.32940291E-05  1.46800255E-11  1.12728934E-11
  7.24490893E-09  4.68937358E-06 -7.10537694E-06  4.84864466E-10  1.48286932E-11
 -1.47377996E-08 -2.79069580E-05  4.23270234E-05  8.80112750E-11  0.00000000E+00
 -1.89463948E-04  2.87800179E-04  1.03172192E-08 -3.70123994E-09  8.94671831E-05
 -1.35695335E-04  4.23392661E-11  0.00000000E+00 -3.39029119E-10  5.56603266E-07
 -8.43863562E-07 -9.69050015E-13  0.00000000E+00  8.11775084E-11  1.11694351E-10
 -1.53575837E-08  5.13471827E-08 -1.30710597E-09  3.12082024E-09 -1.19104386E-08
  1.93963454E-08 -5.10600347E-01  7.74634306E-01 -9.32342947E-05 -1.10863654E-02
  1.68191746E-02 -2.02657780E-06  2.18352442E-03 -3.31262128E-03  4.04867891E-07
 -6.10004632E-09 -2.82254903E-05  4.28190223E-05 -1.90207134E-10 -8.84374498E-10
  2.86129374E-09  1.11267302E-05 -1.68747137E-05 -2.26744492E-10 -1.16568932E-10
 -4.92023197E-09 -5.09935686E-06  7.71586879E-06  5.94321307E-11  1.33397093E-11
 -5.97096626E-04  9.05833266E-04 -1.17635404E-07  1.55966935E-08  1.77785819E-05
 -2.69058029E-05 -2.09922133E-10 -1.44483241E-11 -6.71758788E-11  2.15496467E-07
 -3.27132565E-07  8.09011749E-12  0.00000000E+00  2.27102711E-10  3.20724874E-10
 -4.90242683E-09  1.49876346E-08 -5.52610862E-09  8.57098483E-09 -5.34009980E-09
 -1.27060491E-08  2.93640591E-01  1.93587464E-01  3.18980106E-05  6.36245089E-03
  4.19455552E-03  6.88336435E-07 -1.22124189E-03 -8.05133303E-04 -1.24363144E-07
 -3.66325678E-09 -1.32857537E-05 -8.75958062E-06 -3.13233306E-12  0.00000000E+00
  6.68978720E-09 -7.11101296E-06 -4.68419762E-06  5.34841124E-12  0.00000000E+00
 -1.22382858E-08  4.23360393E-05  2.78987417E-05  4.37452641E-11  0.00000000E+00
  2.87615885E-04  1.89630536E-04  1.33934929E-08 -2.83500147E-09 -1.35725118E-04
 -8.94394761E-05  3.39596851E-12  0.00000000E+00 -2.61252138E-10 -8.44079251E-07
 -5.56435303E-07  1.40937095E-12  0.00000000E+00 -1.58720017E-10  3.71302007E-10
 -1.18050183E-08  3.94270051E-08 -1.68294944E-09  2.24707998E-09 -8.86347311E-09
  1.65087498E-08  7.74690806E-01  5.10549082E-01 -7.70877078E-05  1.68204138E-02
  1.10852560E-02 -1.67559122E-06 -3.31286958E-03 -2.18329666E-03  3.34392254E-07
 -5.24376439E-09  4.28240290E-05  2.82219351E-05 -2.85785999E-10 -1.30256284E-10
  2.66264848E-09 -1.68786685E-05 -1.11229058E-05 -6.62141315E-11  5.84898956E-11
 -4.77719901E-09  7.72798995E-06  5.08807399E-06  3.63502674E-11 -3.15095029E-11
  9.05911949E-04  5.97022671E-04 -9.59461405E-08  1.25262326E-08 -2.69452342E-05
 -1.77426350E-05  1.11708236E-10  1.01575089E-11 -3.19955214E-11 -3.27064819E-07
 -2.15646248E-07 -4.36745762E-12  0.00000000E+00 -3.23396701E-10  6.62263530E-10
  8.03183300E-02 -3.17969969E-01  4.56186865E-01  3.34311449E-01  1.04199495E-02
 -3.44583583E-03 -6.09088698E-10  3.43568461E-10  6.69088992E-04  1.81594786E-09
  2.98838758E-10 -1.43276340E-03 -3.31969727E-10  1.77195814E-10 -1.12982245E-03
 -2.84762062E-03  7.32392062E-08  4.77290233E-07  1.60329015E-06  3.72830099E-06
 -2.08701934E-03  4.78447188E-08  3.13991962E-07  1.05914907E-06  2.45812747E-06
 -8.78944635E-04  2.70790891E-08  1.88584291E-07  6.31540943E-07  1.46164793E-06
 -1.84297797E-09 -1.51355025E-08  4.54509463E-04  1.44772182E-04  2.11172857E-09