#INFO: **** input file is /share/home/srwang/automr_inputlibrary/suhf_vs_gvb/Cr2_40/suhf.py ****
from pyphf import suscf, guess
from pyscf import lib

lib.num_threads(8)
xyz = '''Cr 0.0 0.0 0.0; Cr 0.0 0.0 4.0'''

mf1 = guess.from_frag(xyz, 'def2-tzvp', [[0],[1]], [0,0], [6,-6], cycle=50)
mf1 = guess.check_stab(mf1)
mf2 = suscf.SUHF(mf1)
mf2.max_cycle = 100
mf2.level_shift = 0.5
mf2.tofch = True
mf2.oldfch = 'Cr2_40_uhf.fch'
mf2.kernel()
#INFO: ******************** input file end ********************


System: uname_result(system='Linux', node='xc02n12', release='3.10.0-1127.el7.x86_64', version='#1 SMP Tue Feb 18 16:39:12 EST 2020', machine='x86_64', processor='x86_64')  Threads 8
Python 3.7.4 (default, Aug 13 2019, 20:35:49) 
[GCC 7.3.0]
numpy 1.17.2  scipy 1.4.1
Date: Mon Jul  5 14:30:00 2021
PySCF version 1.7.6a1
PySCF path  /share/home/srwang/pyscf/pyscf
GIT HEAD      ref: refs/heads/master
GIT master branch  80f71dfe77ac5f9caae26788acf76446987635bd

[CONFIG] conf_file /share/home/srwang/.pyscf_conf.py
[INPUT] verbose = 4
[INPUT] num. atoms = 2
[INPUT] num. electrons = 48
[INPUT] charge = 0
[INPUT] spin (= nelec alpha-beta = 2S) = 0
[INPUT] symmetry False subgroup None
[INPUT] Mole.unit = angstrom
[INPUT]  1 Cr     0.000000000000   0.000000000000   0.000000000000 AA    0.000000000000   0.000000000000   0.000000000000 Bohr
[INPUT]  2 Cr     0.000000000000   0.000000000000   4.000000000000 AA    0.000000000000   0.000000000000   7.558904498260 Bohr

nuclear repulsion = 76.20151837248
number of shells = 30
number of NR pGTOs = 184
number of NR cGTOs = 90
basis = def2-tzvp
ecp = {}
CPU time:         1.05
**** generating fragment guess ****
fragments: [('Cr', [0.0, 0.0, 0.0])] [('Cr', [0.0, 0.0, 4.0])]
converged SCF energy = -1043.33452131755  <S^2> = 12.000047  2S+1 = 7.0000135
converged SCF energy = -1043.33452131755  <S^2> = 12.000047  2S+1 = 7.0000135
       na   nb
atom1  15    9
atom2   9   15


******** <class 'pyscf.scf.uhf.UHF'> ********
method = UHF
initial guess = minao
damping factor = 0
level_shift factor = 0
DIIS = <class 'pyscf.scf.diis.CDIIS'>
diis_start_cycle = 1
diis_space = 8
SCF conv_tol = 1e-09
SCF conv_tol_grad = None
SCF max_cycles = 50
direct_scf = True
direct_scf_tol = 1e-13
chkfile to save SCF result = /share/home/srwang/automr_inputlibrary/suhf_vs_gvb/Cr2_40/tmp798hgbfa
max_memory 4000 MB (current use 135 MB)
number electrons alpha = 24  beta = 24
Set gradient conv threshold to 3.16228e-05
init E= -2086.67602281102
  alpha nocc = 24  HOMO = -0.224318628546566  LUMO = 0.0262463668472387
  beta  nocc = 24  HOMO = -0.224318628546613  LUMO = 0.0262463668480135
cycle= 1 E= -2086.67053209826  delta_E= 0.00549  |g|= 0.00594  |ddm|= 0.0658
  alpha nocc = 24  HOMO = -0.223488957585359  LUMO = 0.0262293954705415
  beta  nocc = 24  HOMO = -0.2234889575855  LUMO = 0.0262293954713445
cycle= 2 E= -2086.6706111371  delta_E= -7.9e-05  |g|= 0.00267  |ddm|= 0.015
  alpha nocc = 24  HOMO = -0.222706734115925  LUMO = 0.0261684244442838
  beta  nocc = 24  HOMO = -0.222706734116064  LUMO = 0.026168424445052
cycle= 3 E= -2086.67063654002  delta_E= -2.54e-05  |g|= 0.00188  |ddm|= 0.0111
  alpha nocc = 24  HOMO = -0.222508967160092  LUMO = 0.0260726980066326
  beta  nocc = 24  HOMO = -0.222508967160172  LUMO = 0.0260726980074067
cycle= 4 E= -2086.67064161026  delta_E= -5.07e-06  |g|= 0.000729  |ddm|= 0.00463
  alpha nocc = 24  HOMO = -0.222322807557143  LUMO = 0.0260114341049399
  beta  nocc = 24  HOMO = -0.222322807557287  LUMO = 0.0260114341056965
cycle= 5 E= -2086.67064325912  delta_E= -1.65e-06  |g|= 0.000281  |ddm|= 0.00388
  alpha nocc = 24  HOMO = -0.222315242570297  LUMO = 0.0259901611579778
  beta  nocc = 24  HOMO = -0.222315242570409  LUMO = 0.0259901611587447
cycle= 6 E= -2086.67064348742  delta_E= -2.28e-07  |g|= 0.000113  |ddm|= 0.00118
  alpha nocc = 24  HOMO = -0.222306598212133  LUMO = 0.0259905285878463
  beta  nocc = 24  HOMO = -0.222306598212228  LUMO = 0.0259905285885798
cycle= 7 E= -2086.67064353224  delta_E= -4.48e-08  |g|= 3.11e-05  |ddm|= 0.000594
  alpha nocc = 24  HOMO = -0.22231028587041  LUMO = 0.0259953851943872
  beta  nocc = 24  HOMO = -0.222310285870539  LUMO = 0.0259953851951238
cycle= 8 E= -2086.6706435355  delta_E= -3.26e-09  |g|= 8.73e-06  |ddm|= 0.000216
  alpha nocc = 24  HOMO = -0.222311669391577  LUMO = 0.0259964527916889
  beta  nocc = 24  HOMO = -0.2223116693917  LUMO = 0.0259964527924167
cycle= 9 E= -2086.67064353577  delta_E= -2.68e-10  |g|= 2.9e-06  |ddm|= 7.32e-05
  alpha nocc = 24  HOMO = -0.222311603102978  LUMO = 0.0259964384932133
  beta  nocc = 24  HOMO = -0.222311603103065  LUMO = 0.0259964384940028
Extra cycle  E= -2086.67064353578  delta_E= -1.14e-11  |g|= 1.96e-06  |ddm|= 5.75e-06
converged SCF energy = -2086.67064353578  <S^2> = 5.8985142  2S+1 = 4.9592395
time for guess: 0.669
**** checking UHF/UKS internal stability ...
tol 0.0001  toloose 0.01
max_cycle 50  max_space 12  max_memory 2000  incore True
davidson 0 1  |r|= 2.59  e= [1.42626716]  max|de|= 1.43  lindep= 0.801
davidson 1 2  |r|= 0.922  e= [1.03739465]  max|de|= -0.389  lindep= 0.988
davidson 2 3  |r|= 0.203  e= [0.72714546]  max|de|= -0.31  lindep= 0.993
davidson 3 4  |r|= 0.243  e= [0.48277685]  max|de|= -0.244  lindep= 0.994
davidson 4 5  |r|= 0.178  e= [0.24718153]  max|de|= -0.236  lindep= 0.99
davidson 5 6  |r|= 0.153  e= [0.22962658]  max|de|= -0.0176  lindep= 0.818
davidson 6 7  |r|= 0.0896  e= [0.22082253]  max|de|= -0.0088  lindep= 0.915
davidson 7 8  |r|= 0.107  e= [0.21467818]  max|de|= -0.00614  lindep= 0.772
davidson 8 9  |r|= 0.179  e= [0.19918039]  max|de|= -0.0155  lindep= 0.787
davidson 9 10  |r|= 0.145  e= [0.17725812]  max|de|= -0.0219  lindep=  0.9
davidson 10 11  |r|= 0.0895  e= [0.17176693]  max|de|= -0.00549  lindep= 0.884
davidson 11 12  |r|= 0.0587  e= [0.16892017]  max|de|= -0.00285  lindep= 0.779
davidson 12 1  |r|= 0.0587  e= [0.16892017]  max|de|= 6.94e-16  lindep= 0.999
davidson 13 2  |r|= 0.0285  e= [0.16833154]  max|de|= -0.000589  lindep= 0.808
davidson 14 3  |r|= 0.0209  e= [0.16815859]  max|de|= -0.000173  lindep= 0.947
davidson 15 4  |r|= 0.0143  e= [0.16804096]  max|de|= -0.000118  lindep= 0.755
root 0 converged  |r|= 0.00639  e= 0.16800039780895049  max|de|= -4.06e-05
converged 16 5  |r|= 0.00639  e= [0.1680004]  max|de|= -4.06e-05
UHF/UKS wavefunction is stable in the internal stability analysis

******** <class 'pyphf.suscf.SUHF'> ********
Date: Mon Jul  5 14:30:01 2021
pyphf version 0.4.0
pyphf path  /share/home/srwang/ExSCF
GIT ORIG_HEAD 3359379feaf48d24d1be318eb6e2afc227b11fdb
GIT HEAD (branch main) bc10c7af3fe3904d1db1be08e3fae4560657cda2
max_cycle: 100
verbose: 4                # normal
conv_tol: 1e-07           # 1e-07 for RMSD(dm), 1e-05 for MaxD(dm), 1e-09 for dE
DIIS: <class 'pyscf.scf.diis.CDIIS'>
diis_start_cyc = 10
level shift: 0.500 a.u.
grids:  [0.06237655 0.31939555 0.74529195 1.28265786 1.85893479 2.39630071
 2.8221971  3.07921611] 
weights:  [0.15900941 0.34931531 0.49276925 0.56970235 0.56970235 0.49276925
 0.34931531 0.15900941]
S = 0.0, Sz = 0.0
Wigner small d:  1
value : [1. 1. 1. 1. 1. 1. 1. 1.]
time for Preparation before cyc: 0.106
**** Start Cycle 1 ****
time for NO, Ng: 0.278
time for Gg: 1.017
detC 1.0000000000000047
detNg [1.005755e+00 1.163050e+00 2.311340e+00 1.350634e+01 4.023317e+02 1.106111e+05 7.673617e+08 7.281739e+15]
xg [0.994278 0.859808 0.432649 0.074039 0.002486 0.000009 0.       0.      ]
ciS 0.2905501855958659
ciH -628.4231526288611
S2 = 0.000555
Hsp + Hph =  -2162.873003643342
level shift: 0.500 a.u.
Alpha occ 24 vir 66; Beta occ 24 vir 66
Alpha energies:  [-0.373268 -0.373268 -0.373143 -0.373143 -0.372715 -0.222317] <- HOMO
         LUMO->  [0.525997 0.611098 0.611098 0.615684 0.64524  0.64524 ]
Beta energies:   [-0.373268 -0.373268 -0.373143 -0.373143 -0.372715 -0.222317] <- HOMO
         LUMO->  [0.525997 0.611098 0.611098 0.615684 0.64524  0.64524 ]
time for xg, H, S2, Yg, Feff: 0.063
 E =  -2086.67148527
**** Start Cycle 2 ****
time for NO, Ng: 0.272
time for Gg: 1.021
detC 1.00000000000001
detNg [1.005755e+00 1.163057e+00 2.311422e+00 1.350797e+01 4.024655e+02 1.107040e+05 7.686831e+08 7.314577e+15]
xg [0.994278 0.859803 0.432634 0.07403  0.002485 0.000009 0.       0.      ]
ciS 0.29053916779008937
ciH -628.3993357543765
S2 = 0.000555
Hsp + Hph =  -2162.8730492144405
level shift: 0.500 a.u.
Alpha occ 24 vir 66; Beta occ 24 vir 66
Alpha energies:  [-0.373059 -0.373059 -0.372967 -0.372967 -0.372539 -0.222332] <- HOMO
         LUMO->  [0.526026 0.611104 0.611104 0.615666 0.645239 0.645239]
Beta energies:   [-0.373059 -0.373059 -0.372967 -0.372967 -0.372539 -0.222332] <- HOMO
         LUMO->  [0.526026 0.611104 0.611104 0.615666 0.645239 0.645239]
time for xg, H, S2, Yg, Feff: 0.060
 E =  -2086.67153084, delta E = -4.55711e-05, MaxD(dm) = 0.000357495, RMSD(dm) = 2.47685e-05
**** Start Cycle 3 ****
time for NO, Ng: 0.272
time for Gg: 1.017
detC -0.9999999999999939
detNg [1.005755e+00 1.163059e+00 2.311444e+00 1.350840e+01 4.025004e+02 1.107278e+05 7.690448e+08 7.331326e+15]
xg [0.994278 0.859802 0.43263  0.074028 0.002484 0.000009 0.       0.      ]
ciS 0.2905362023065688
ciH -628.3929248951838
S2 = 0.000556
Hsp + Hph =  -2162.873059902237
level shift: 0.500 a.u.
Alpha occ 24 vir 66; Beta occ 24 vir 66
Alpha energies:  [-0.373055 -0.373055 -0.372984 -0.372984 -0.372556 -0.22234 ] <- HOMO
         LUMO->  [0.526044 0.611106 0.611106 0.615661 0.645252 0.645252]
Beta energies:   [-0.373055 -0.373055 -0.372984 -0.372984 -0.372556 -0.22234 ] <- HOMO
         LUMO->  [0.526044 0.611106 0.611106 0.615661 0.645252 0.645252]
time for xg, H, S2, Yg, Feff: 0.063
 E =  -2086.67154153, delta E = -1.06878e-05, MaxD(dm) = 0.000252418, RMSD(dm) = 1.67365e-05
**** Start Cycle 4 ****
time for NO, Ng: 0.269
time for Gg: 1.013
detC 0.9999999999999953
detNg [1.005755e+00 1.163059e+00 2.311442e+00 1.350835e+01 4.024948e+02 1.107236e+05 7.690131e+08 7.340776e+15]
xg [0.994278 0.859802 0.43263  0.074028 0.002485 0.000009 0.       0.      ]
ciS 0.29053653415320757
ciH -628.3936437911686
S2 = 0.000556
Hsp + Hph =  -2162.8730638736124
level shift: 0.500 a.u.
Alpha occ 24 vir 66; Beta occ 24 vir 66
Alpha energies:  [-0.372993 -0.372993 -0.372936 -0.372936 -0.372511 -0.222335] <- HOMO
         LUMO->  [0.526062 0.611114 0.611114 0.615665 0.645267 0.645267]
Beta energies:   [-0.372993 -0.372993 -0.372936 -0.372936 -0.372511 -0.222335] <- HOMO
         LUMO->  [0.526062 0.611114 0.611114 0.615665 0.645267 0.645267]
time for xg, H, S2, Yg, Feff: 0.059
 E =  -2086.67154550, delta E = -3.97138e-06, MaxD(dm) = 0.000177857, RMSD(dm) = 1.17545e-05
**** Start Cycle 5 ****
time for NO, Ng: 0.274
time for Gg: 1.010
detC 1.0000000000000113
detNg [1.005755e+00 1.163057e+00 2.311426e+00 1.350802e+01 4.024663e+02 1.107032e+05 7.687489e+08 7.344341e+15]
xg [0.994278 0.859803 0.432633 0.07403  0.002485 0.000009 0.       0.      ]
ciS 0.2905387192849923
ciH -628.3983704880586
S2 = 0.000555
Hsp + Hph =  -2162.873065712307
level shift: 0.500 a.u.
Alpha occ 24 vir 66; Beta occ 24 vir 66
Alpha energies:  [-0.372967 -0.372967 -0.372919 -0.372919 -0.372496 -0.222331] <- HOMO
         LUMO->  [0.526076 0.61112  0.61112  0.61567  0.645281 0.645281]
Beta energies:   [-0.372967 -0.372967 -0.372919 -0.372919 -0.372496 -0.222331] <- HOMO
         LUMO->  [0.526076 0.61112  0.61112  0.61567  0.645281 0.645281]
time for xg, H, S2, Yg, Feff: 0.060
 E =  -2086.67154734, delta E = -1.83869e-06, MaxD(dm) = 0.000127655, RMSD(dm) = 8.56122e-06
**** Start Cycle 6 ****
time for NO, Ng: 0.274
time for Gg: 1.011
detC 0.9999999999999908
detNg [1.005755e+00 1.163055e+00 2.311404e+00 1.350756e+01 4.024269e+02 1.106751e+05 7.683732e+08 7.344578e+15]
xg [0.994278 0.859804 0.432638 0.074033 0.002485 0.000009 0.       0.      ]
ciS 0.2905417728918762
ciH -628.4049753283424
S2 = 0.000555
Hsp + Hph =  -2162.873066662949
level shift: 0.500 a.u.
Alpha occ 24 vir 66; Beta occ 24 vir 66
Alpha energies:  [-0.372936 -0.372936 -0.372894 -0.372894 -0.372474 -0.222323] <- HOMO
         LUMO->  [0.526088 0.611127 0.611127 0.615676 0.645294 0.645294]
Beta energies:   [-0.372936 -0.372936 -0.372894 -0.372894 -0.372474 -0.222323] <- HOMO
         LUMO->  [0.526088 0.611127 0.611127 0.615676 0.645294 0.645294]
time for xg, H, S2, Yg, Feff: 0.055
 E =  -2086.67154829, delta E = -9.50642e-07, MaxD(dm) = 9.2546e-05, RMSD(dm) = 6.43712e-06
**** Start Cycle 7 ****
time for NO, Ng: 0.273
time for Gg: 1.017
detC 1.0000000000000173
detNg [1.005755e+00 1.163053e+00 2.311379e+00 1.350705e+01 4.023831e+02 1.106440e+05 7.679507e+08 7.342788e+15]
xg [0.994278 0.859806 0.432642 0.074035 0.002485 0.000009 0.       0.      ]
ciS 0.29054517676053987
ciH -628.4123376183263
S2 = 0.000555
Hsp + Hph =  -2162.8730671934304
level shift: 0.500 a.u.
Alpha occ 24 vir 66; Beta occ 24 vir 66
Alpha energies:  [-0.372914 -0.372914 -0.372876 -0.372876 -0.372458 -0.222316] <- HOMO
         LUMO->  [0.526097 0.611134 0.611134 0.615682 0.645305 0.645305]
Beta energies:   [-0.372914 -0.372914 -0.372876 -0.372876 -0.372458 -0.222316] <- HOMO
         LUMO->  [0.526097 0.611134 0.611134 0.615682 0.645305 0.645305]
time for xg, H, S2, Yg, Feff: 0.063
 E =  -2086.67154882, delta E = -5.30481e-07, MaxD(dm) = 6.80907e-05, RMSD(dm) = 4.97984e-06
**** Start Cycle 8 ****
time for NO, Ng: 0.273
time for Gg: 1.012
detC 0.9999999999999967
detNg [1.005755e+00 1.163051e+00 2.311354e+00 1.350654e+01 4.023390e+02 1.106126e+05 7.675224e+08 7.339986e+15]
xg [0.994278 0.859807 0.432647 0.074038 0.002485 0.000009 0.       0.      ]
ciS 0.29054861162263845
ciH -628.4197668804984
S2 = 0.000555
Hsp + Hph =  -2162.8730675081783
level shift: 0.500 a.u.
Alpha occ 24 vir 66; Beta occ 24 vir 66
Alpha energies:  [-0.372894 -0.372894 -0.372859 -0.372859 -0.372443 -0.222309] <- HOMO
         LUMO->  [0.526105 0.61114  0.61114  0.615688 0.645315 0.645315]
Beta energies:   [-0.372894 -0.372894 -0.372859 -0.372859 -0.372443 -0.222309] <- HOMO
         LUMO->  [0.526105 0.61114  0.61114  0.615688 0.645315 0.645315]
time for xg, H, S2, Yg, Feff: 0.059
 E =  -2086.67154914, delta E = -3.14748e-07, MaxD(dm) = 5.12771e-05, RMSD(dm) = 3.9424e-06
**** Start Cycle 9 ****
time for NO, Ng: 0.266
time for Gg: 1.009
detC -1.0000000000000073
detNg [1.005755e+00 1.163049e+00 2.311330e+00 1.350604e+01 4.022968e+02 1.105825e+05 7.671106e+08 7.336743e+15]
xg [0.994278 0.859809 0.432651 0.074041 0.002486 0.000009 0.       0.      ]
ciS 0.29055190505842576
ciH -628.4268902210581
S2 = 0.000555
Hsp + Hph =  -2162.8730677043422
level shift: 0.500 a.u.
Alpha occ 24 vir 66; Beta occ 24 vir 66
Alpha energies:  [-0.372879 -0.372879 -0.372845 -0.372845 -0.372431 -0.222303] <- HOMO
         LUMO->  [0.526111 0.611145 0.611145 0.615693 0.645323 0.645323]
Beta energies:   [-0.372879 -0.372879 -0.372845 -0.372845 -0.372431 -0.222303] <- HOMO
         LUMO->  [0.526111 0.611145 0.611145 0.615693 0.645323 0.645323]
time for xg, H, S2, Yg, Feff: 0.059
 E =  -2086.67154933, delta E = -1.96164e-07, MaxD(dm) = 4.02912e-05, RMSD(dm) = 3.17751e-06
**** Start Cycle 10 ****
time for NO, Ng: 0.273
time for Gg: 1.011
detC -1.0000000000000036
detNg [1.005755e+00 1.163047e+00 2.311307e+00 1.350559e+01 4.022575e+02 1.105546e+05 7.667275e+08 7.333421e+15]
xg [0.994278 0.85981  0.432656 0.074043 0.002486 0.000009 0.       0.      ]
ciS 0.29055496475771736
ciH -628.4335079991444
S2 = 0.000555
Hsp + Hph =  -2162.873067831317
F(mod,ortho) updated with CDIIS
level shift: 0.500 a.u.
Alpha occ 24 vir 66; Beta occ 24 vir 66
Alpha energies:  [-0.372866 -0.372866 -0.372834 -0.372834 -0.37242  -0.222297] <- HOMO
         LUMO->  [0.526116 0.61115  0.61115  0.615697 0.64533  0.64533 ]
Beta energies:   [-0.372866 -0.372866 -0.372834 -0.372834 -0.37242  -0.222297] <- HOMO
         LUMO->  [0.526116 0.61115  0.61115  0.615697 0.64533  0.64533 ]
time for xg, H, S2, Yg, Feff: 0.060
 E =  -2086.67154946, delta E = -1.26975e-07, MaxD(dm) = 3.19236e-05, RMSD(dm) = 2.59537e-06
**** Start Cycle 11 ****
time for NO, Ng: 0.272
time for Gg: 1.010
detC 0.9999999999999977
detNg [1.005755e+00 1.163045e+00 2.311287e+00 1.350517e+01 4.022218e+02 1.105292e+05 7.663785e+08 7.330218e+15]
xg [0.994278 0.859812 0.432659 0.074046 0.002486 0.000009 0.       0.      ]
ciS 0.29055775071683937
ciH -628.4395336996618
S2 = 0.000555
Hsp + Hph =  -2162.873067915859
F(mod,ortho) updated with CDIIS
level shift: 0.500 a.u.
Alpha occ 24 vir 66; Beta occ 24 vir 66
Alpha energies:  [-0.372814 -0.372814 -0.372786 -0.372786 -0.372377 -0.222271] <- HOMO
         LUMO->  [0.526137 0.611169 0.611169 0.615716 0.645359 0.645359]
Beta energies:   [-0.372814 -0.372814 -0.372786 -0.372786 -0.372377 -0.222271] <- HOMO
         LUMO->  [0.526137 0.611169 0.611169 0.615716 0.645359 0.645359]
time for xg, H, S2, Yg, Feff: 0.058
 E =  -2086.67154954, delta E = -8.45421e-08, MaxD(dm) = 5.24302e-05, RMSD(dm) = 4.52019e-06
**** Start Cycle 12 ****
time for NO, Ng: 0.272
time for Gg: 1.012
detC 0.9999999999999994
detNg [1.005755e+00 1.163043e+00 2.311257e+00 1.350456e+01 4.021699e+02 1.104922e+05 7.658729e+08 7.326045e+15]
xg [0.994278 0.859814 0.432665 0.074049 0.002487 0.000009 0.       0.      ]
ciS 0.2905618036180553
ciH -628.448299641937
S2 = 0.000555
Hsp + Hph =  -2162.873068023886
F(mod,ortho) updated with CDIIS
level shift: 0.500 a.u.
Alpha occ 24 vir 66; Beta occ 24 vir 66
Alpha energies:  [-0.372815 -0.372815 -0.372787 -0.372787 -0.372379 -0.222271] <- HOMO
         LUMO->  [0.526137 0.611168 0.611168 0.615715 0.645359 0.645359]
Beta energies:   [-0.372815 -0.372815 -0.372787 -0.372787 -0.372379 -0.222271] <- HOMO
         LUMO->  [0.526137 0.611168 0.611168 0.615715 0.645359 0.645359]
time for xg, H, S2, Yg, Feff: 0.059
 E =  -2086.67154965, delta E = -1.08027e-07, MaxD(dm) = 3.05996e-05, RMSD(dm) = 2.66147e-06
**** Start Cycle 13 ****
time for NO, Ng: 0.268
time for Gg: 1.008
detC -1.0000000000000124
detNg [1.005755e+00 1.163041e+00 2.311235e+00 1.350410e+01 4.021302e+02 1.104640e+05 7.654858e+08 7.322434e+15]
xg [0.994278 0.859815 0.432669 0.074052 0.002487 0.000009 0.       0.      ]
ciS 0.290564899556781
ciH -628.4549957767567
S2 = 0.000555
Hsp + Hph =  -2162.8730680663193
F(mod,ortho) updated with CDIIS
level shift: 0.500 a.u.
Alpha occ 24 vir 66; Beta occ 24 vir 66
Alpha energies:  [-0.372812 -0.372812 -0.372784 -0.372784 -0.372377 -0.222267] <- HOMO
         LUMO->  [0.526138 0.61117  0.61117  0.615716 0.645362 0.645362]
Beta energies:   [-0.372812 -0.372812 -0.372784 -0.372784 -0.372377 -0.222267] <- HOMO
         LUMO->  [0.526138 0.61117  0.61117  0.615716 0.645362 0.645362]
time for xg, H, S2, Yg, Feff: 0.064
 E =  -2086.67154969, delta E = -4.24334e-08, MaxD(dm) = 2.53553e-05, RMSD(dm) = 2.11116e-06
**** Start Cycle 14 ****
time for NO, Ng: 0.272
time for Gg: 1.010
detC -0.9999999999999919
detNg [1.005755e+00 1.163039e+00 2.311215e+00 1.350369e+01 4.020951e+02 1.104391e+05 7.651433e+08 7.319202e+15]
xg [0.994278 0.859816 0.432673 0.074054 0.002487 0.000009 0.       0.      ]
ciS 0.29056764144016417
ciH -628.4609261289692
S2 = 0.000555
Hsp + Hph =  -2162.873068088645
F(mod,ortho) updated with CDIIS
level shift: 0.500 a.u.
Alpha occ 24 vir 66; Beta occ 24 vir 66
Alpha energies:  [-0.372809 -0.372809 -0.372781 -0.372781 -0.372373 -0.222265] <- HOMO
         LUMO->  [0.526138 0.611171 0.611171 0.615718 0.645363 0.645363]
Beta energies:   [-0.372809 -0.372809 -0.372781 -0.372781 -0.372373 -0.222265] <- HOMO
         LUMO->  [0.526138 0.611171 0.611171 0.615718 0.645363 0.645363]
time for xg, H, S2, Yg, Feff: 0.061
 E =  -2086.67154972, delta E = -2.23258e-08, MaxD(dm) = 2.07663e-05, RMSD(dm) = 1.40629e-06
**** Start Cycle 15 ****
time for NO, Ng: 0.274
time for Gg: 1.012
detC 1.0000000000000036
detNg [1.005755e+00 1.163038e+00 2.311198e+00 1.350335e+01 4.020661e+02 1.104185e+05 7.648606e+08 7.316361e+15]
xg [0.994278 0.859817 0.432676 0.074056 0.002487 0.000009 0.       0.      ]
ciS 0.2905699009318674
ciH -628.4658131257193
S2 = 0.000555
Hsp + Hph =  -2162.8730680989615
F(mod,ortho) updated with CDIIS
level shift: 0.500 a.u.
Alpha occ 24 vir 66; Beta occ 24 vir 66
Alpha energies:  [-0.372811 -0.372811 -0.372782 -0.372782 -0.372374 -0.222263] <- HOMO
         LUMO->  [0.526137 0.611172 0.611172 0.615718 0.645363 0.645363]
Beta energies:   [-0.372811 -0.372811 -0.372782 -0.372782 -0.372374 -0.222263] <- HOMO
         LUMO->  [0.526137 0.611172 0.611172 0.615718 0.645363 0.645363]
time for xg, H, S2, Yg, Feff: 0.061
 E =  -2086.67154973, delta E = -1.03164e-08, MaxD(dm) = 1.63738e-05, RMSD(dm) = 9.5819e-07
**** Start Cycle 16 ****
time for NO, Ng: 0.272
time for Gg: 1.013
detC -0.999999999999986
detNg [1.005754e+00 1.163037e+00 2.311185e+00 1.350308e+01 4.020428e+02 1.104019e+05 7.646329e+08 7.314006e+15]
xg [0.994278 0.859818 0.432678 0.074057 0.002487 0.000009 0.       0.      ]
ciS 0.2905717210340668
ciH -628.4697497771874
S2 = 0.000555
Hsp + Hph =  -2162.8730681039165
F(mod,ortho) updated with CDIIS
level shift: 0.500 a.u.
Alpha occ 24 vir 66; Beta occ 24 vir 66
Alpha energies:  [-0.37281  -0.37281  -0.37278  -0.37278  -0.372372 -0.222261] <- HOMO
         LUMO->  [0.526137 0.611173 0.611173 0.615719 0.645364 0.645364]
Beta energies:   [-0.37281  -0.37281  -0.37278  -0.37278  -0.372372 -0.222261] <- HOMO
         LUMO->  [0.526137 0.611173 0.611173 0.615719 0.645364 0.645364]
time for xg, H, S2, Yg, Feff: 0.061
 E =  -2086.67154973, delta E = -4.95493e-09, MaxD(dm) = 1.40607e-05, RMSD(dm) = 7.11017e-07
**** Start Cycle 17 ****
time for NO, Ng: 0.274
time for Gg: 1.008
detC -1.0000000000000016
detNg [1.005754e+00 1.163036e+00 2.311173e+00 1.350284e+01 4.020224e+02 1.103874e+05 7.644328e+08 7.311862e+15]
xg [0.994278 0.859819 0.432681 0.074058 0.002487 0.000009 0.       0.      ]
ciS 0.2905733182685375
ciH -628.473204393373
S2 = 0.000555
Hsp + Hph =  -2162.873068106551
F(mod,ortho) updated with CDIIS
level shift: 0.500 a.u.
Alpha occ 24 vir 66; Beta occ 24 vir 66
Alpha energies:  [-0.372809 -0.372809 -0.37278  -0.37278  -0.372371 -0.22226 ] <- HOMO
         LUMO->  [0.526137 0.611173 0.611173 0.615719 0.645364 0.645364]
Beta energies:   [-0.372809 -0.372809 -0.37278  -0.37278  -0.372371 -0.22226 ] <- HOMO
         LUMO->  [0.526137 0.611173 0.611173 0.615719 0.645364 0.645364]
time for xg, H, S2, Yg, Feff: 0.059
 E =  -2086.67154973, delta E = -2.63435e-09, MaxD(dm) = 9.85527e-06, RMSD(dm) = 4.80358e-07
**** Start Cycle 18 ****
time for NO, Ng: 0.274
time for Gg: 1.010
detC -1.000000000000001
detNg [1.005754e+00 1.163035e+00 2.311165e+00 1.350267e+01 4.020078e+02 1.103770e+05 7.642902e+08 7.310293e+15]
xg [0.994278 0.85982  0.432682 0.074059 0.002488 0.000009 0.       0.      ]
ciS 0.29057445569302276
ciH -628.475664498525
S2 = 0.000555
Hsp + Hph =  -2162.8730681078096
F(mod,ortho) updated with CDIIS
level shift: 0.500 a.u.
Alpha occ 24 vir 66; Beta occ 24 vir 66
Alpha energies:  [-0.37281  -0.37281  -0.37278  -0.37278  -0.372372 -0.222259] <- HOMO
         LUMO->  [0.526136 0.611173 0.611173 0.615719 0.645364 0.645364]
Beta energies:   [-0.37281  -0.37281  -0.37278  -0.37278  -0.372372 -0.222259] <- HOMO
         LUMO->  [0.526136 0.611173 0.611173 0.615719 0.645364 0.645364]
time for xg, H, S2, Yg, Feff: 0.063
 E =  -2086.67154974, delta E = -1.25874e-09, MaxD(dm) = 7.77969e-06, RMSD(dm) = 3.53243e-07
**** Start Cycle 19 ****
time for NO, Ng: 0.273
time for Gg: 1.014
detC -1.0000000000000038
detNg [1.005754e+00 1.163034e+00 2.311158e+00 1.350253e+01 4.019960e+02 1.103687e+05 7.641750e+08 7.308981e+15]
xg [0.994279 0.85982  0.432683 0.07406  0.002488 0.000009 0.       0.      ]
ciS 0.29057537305322284
ciH -628.4776486323882
S2 = 0.000555
Hsp + Hph =  -2162.873068108473
F(mod,ortho) updated with CDIIS
level shift: 0.500 a.u.
Alpha occ 24 vir 66; Beta occ 24 vir 66
Alpha energies:  [-0.372809 -0.372809 -0.37278  -0.37278  -0.372371 -0.222259] <- HOMO
         LUMO->  [0.526136 0.611173 0.611173 0.615719 0.645364 0.645364]
Beta energies:   [-0.372809 -0.372809 -0.37278  -0.37278  -0.372371 -0.222259] <- HOMO
         LUMO->  [0.526136 0.611173 0.611173 0.615719 0.645364 0.645364]
time for xg, H, S2, Yg, Feff: 0.059
 E =  -2086.67154974, delta E = -6.63476e-10, MaxD(dm) = 5.38773e-06, RMSD(dm) = 2.41993e-07
**** Start Cycle 20 ****
time for NO, Ng: 0.275
time for Gg: 1.015
detC 1.000000000000004
detNg [1.005754e+00 1.163034e+00 2.311154e+00 1.350244e+01 4.019878e+02 1.103628e+05 7.640938e+08 7.308029e+15]
xg [0.994279 0.85982  0.432684 0.074061 0.002488 0.000009 0.       0.      ]
ciS 0.2905760199785026
ciH -628.4790478497464
S2 = 0.000555
Hsp + Hph =  -2162.873068108795
F(mod,ortho) updated with CDIIS
level shift: 0.500 a.u.
Alpha occ 24 vir 66; Beta occ 24 vir 66
Alpha energies:  [-0.372809 -0.372809 -0.37278  -0.37278  -0.372371 -0.222258] <- HOMO
         LUMO->  [0.526136 0.611174 0.611174 0.61572  0.645365 0.645365]
Beta energies:   [-0.372809 -0.372809 -0.37278  -0.37278  -0.372371 -0.222258] <- HOMO
         LUMO->  [0.526136 0.611174 0.611174 0.61572  0.645365 0.645365]
time for xg, H, S2, Yg, Feff: 0.063
 E =  -2086.67154974, delta E = -3.21961e-10, MaxD(dm) = 3.83098e-06, RMSD(dm) = 1.76066e-07
**** Start Cycle 21 ****
time for NO, Ng: 0.272
time for Gg: 1.009
detC 1.0000000000000009
detNg [1.005754e+00 1.163034e+00 2.311150e+00 1.350236e+01 4.019816e+02 1.103584e+05 7.640337e+08 7.307296e+15]
xg [0.994279 0.85982  0.432685 0.074061 0.002488 0.000009 0.       0.      ]
ciS 0.2905764977120935
ciH -628.4800811269124
S2 = 0.000555
Hsp + Hph =  -2162.873068108962
F(mod,ortho) updated with CDIIS
level shift: 0.500 a.u.
Alpha occ 24 vir 66; Beta occ 24 vir 66
Alpha energies:  [-0.372809 -0.372809 -0.37278  -0.37278  -0.372371 -0.222258] <- HOMO
         LUMO->  [0.526136 0.611174 0.611174 0.61572  0.645365 0.645365]
Beta energies:   [-0.372809 -0.372809 -0.37278  -0.37278  -0.372371 -0.222258] <- HOMO
         LUMO->  [0.526136 0.611174 0.611174 0.61572  0.645365 0.645365]
time for xg, H, S2, Yg, Feff: 0.059
 E =  -2086.67154974, delta E = -1.66892e-10, MaxD(dm) = 2.56008e-06, RMSD(dm) = 1.21345e-07
**** Start Cycle 22 ****
time for NO, Ng: 0.272
time for Gg: 1.014
detC -1.0000000000000064
detNg [1.005754e+00 1.163033e+00 2.311148e+00 1.350232e+01 4.019775e+02 1.103555e+05 7.639927e+08 7.306784e+15]
xg [0.994279 0.859821 0.432685 0.074061 0.002488 0.000009 0.       0.      ]
ciS 0.290576822828399
ciH -628.4807843122364
S2 = 0.000555
Hsp + Hph =  -2162.873068109041
F(mod,ortho) updated with CDIIS
level shift: 0.500 a.u.
Alpha occ 24 vir 66; Beta occ 24 vir 66
Alpha energies:  [-0.372809 -0.372809 -0.37278  -0.37278  -0.372371 -0.222258] <- HOMO
         LUMO->  [0.526136 0.611174 0.611174 0.61572  0.645365 0.645365]
Beta energies:   [-0.372809 -0.372809 -0.37278  -0.37278  -0.372371 -0.222258] <- HOMO
         LUMO->  [0.526136 0.611174 0.611174 0.61572  0.645365 0.645365]
time for xg, H, S2, Yg, Feff: 0.061

***************
SUHF converged at cycle 22
Final E(SUHF) =  -2086.67154974, delta E = -7.9126e-11, MaxD(dm) = 1.74486e-06, RMSD(dm) = 8.36212e-08
**** Extra Cycle 23 ****
detC -1.0000000000000007
detNg [1.005754e+00 1.163033e+00 2.311146e+00 1.350228e+01 4.019746e+02 1.103534e+05 7.639640e+08 7.306414e+15]
xg [0.994279 0.859821 0.432686 0.074062 0.002488 0.000009 0.       0.      ]
ciS 0.2905770502571582
ciH -628.4812762117854
S2 = 0.000555
Hsp + Hph =  -2162.873068109078
Alpha occ 24 vir 66; Beta occ 24 vir 66
Alpha energies:  [-0.372809 -0.372809 -0.37278  -0.37278  -0.372372 -0.222259] <- HOMO
         LUMO->  [0.026136 0.111173 0.111173 0.115719 0.145365 0.145365]
Beta energies:   [-0.372809 -0.372809 -0.37278  -0.37278  -0.372372 -0.222259] <- HOMO
         LUMO->  [0.026136 0.111173 0.111173 0.115719 0.145365 0.145365]
Extra E(SUHF) =  -2086.67154974, delta E = -3.68345e-11, MaxD(dm) = 2.16352e-06, RMSD(dm) = 9.34029e-08
time for cyc: 30.934
******* suhf density *****
Clebsch-Gordan coeff: < 0 0 0 0 | 0 0 > = 1
Clebsch-Gordan coeff: < 0 0 1 0 | 0 0 > = 0
xggint 1.0
time for 1pdm: 0.030
SUHF NO occ alpha:  1.000000  1.000000  1.000000  1.000000  0.999999  0.999999  0.999999  0.999999  0.999999  0.999999  0.999999  0.999999  0.999997  0.999996  0.999996  0.999996  0.999996  0.999996  0.682964  0.507173  0.507025  0.507025  0.501193  0.501193  0.498807  0.498807  0.492975  0.492975  0.492827  0.317036  0.000004  0.000004  0.000004  0.000004  0.000004  0.000003  ...
SUHF NO occ beta:   1.000000  1.000000  1.000000  1.000000  0.999999  0.999999  0.999999  0.999999  0.999999  0.999999  0.999999  0.999999  0.999997  0.999996  0.999996  0.999996  0.999996  0.999996  0.682964  0.507173  0.507025  0.507025  0.501193  0.501193  0.498807  0.498807  0.492975  0.492975  0.492827  0.317036  0.000004  0.000004  0.000004  0.000004  0.000004  0.000003  ...
SUHF NO occ total:  2.000000  2.000000  2.000000  2.000000  1.999999  1.999999  1.999999  1.999998  1.999998  1.999998  1.999998  1.999998  1.999994  1.999993  1.999993  1.999992  1.999992  1.999991  1.365928  1.014346  1.014050  1.014050  1.002387  1.002387  0.997613  0.997613  0.985950  0.985950  0.985654  0.634072  0.000009  0.000008  0.000008  0.000007  0.000007  0.000006  0.000002  0.000002  0.000002  0.000002  0.000002  0.000001  0.000001  0.000001  ...
core 18, active 12, external 60
time for natorb: 0.062
***** End of SUHF *****
time tot: 31.132
Date: Mon Jul  5 14:30:32 2021
