HF file generated by AutoMR of MOKIT                                    
Stability UHF                                                         Gen                 
Number of atoms                            I                2
Info1-9                                    I   N=           9
           6           5           0           0           0         110
           7           1           2
Charge                                     I                0
Multiplicity                               I                1
Number of electrons                        I               48
Number of alpha electrons                  I               24
Number of beta electrons                   I               24
Number of basis functions                  I               90
Number of independent functions            I               90
Number of point charges in /Mol/           I                0
Number of translation vectors              I                0
Atomic numbers                             I   N=           2
          24          24
Nuclear charges                            R   N=           2
  2.40000000E+01  2.40000000E+01
Current cartesian coordinates              R   N=           6
  0.00000000E+00  0.00000000E+00  0.00000000E+00  0.00000000E+00  0.00000000E+00
  5.66917840E+00
Force Field                                I                0
Int Atom Types                             I   N=           2
           0           0
MM charges                                 R   N=           2
  0.00000000E+00  0.00000000E+00
Integer atomic weights                     I   N=           2
          52          52
Real atomic weights                        R   N=           2
  5.19405097E+01  5.19405097E+01
Atom fragment info                         I   N=           2
           1           2
Atom residue num                           I   N=           2
           0           0
Nuclear spins                              I   N=           2
           0           0
Nuclear ZEff                               R   N=           2
 -2.47200000E+01 -2.47200000E+01
Nuclear QMom                               R   N=           2
  0.00000000E+00  0.00000000E+00
Nuclear GFac                               R   N=           2
  0.00000000E+00  0.00000000E+00
MicOpt                                     I   N=           2
          -1          -1
Number of contracted shells                I               30
Number of primitive shells                 I               72
Pure/Cartesian d shells                    I                0
Pure/Cartesian f shells                    I                0
Highest angular momentum                   I                3
Largest degree of contraction              I                8
Shell types                                I   N=          30
           0           0           0           0           0           0
           1           1           1          -2          -2          -2
           1          -2          -3           0           0           0
           0           0           0           1           1           1
          -2          -2          -2           1          -2          -3
Number of primitives per shell             I   N=          30
           8           4           2           1           1           1
           6           3           1           4           1           1
           1           1           1           8           4           2
           1           1           1           6           3           1
           4           1           1           1           1           1
Shell to atom map                          I   N=          30
           1           1           1           1           1           1
           1           1           1           1           1           1
           1           1           1           2           2           2
           2           2           2           2           2           2
           2           2           2           2           2           2
Primitive exponents                        R   N=          72
  2.54477807E+05  3.81317971E+04  8.67529306E+03  2.45500998E+03  7.99162178E+02
  2.86900215E+02  1.11254132E+02  4.38641526E+01  2.79326692E+02  8.62747324E+01
  1.35557561E+01  5.69781128E+00  8.56365826E+00  1.39882968E+00  5.72881711E-01
  9.00961713E-02  3.41258851E-02  1.30643989E+03  3.09253114E+02  9.89962740E+01
  3.67569165E+01  1.45666571E+01  5.87399374E+00  2.28909997E+01  3.08550018E+00
  1.21323291E+00  4.49316807E-01  4.37200745E+01  1.23912427E+01  4.26394420E+00
  1.55252218E+00  5.37619295E-01  1.64931731E-01  1.20675000E-01  5.10000000E-02
  1.14700000E+00  2.54477807E+05  3.81317971E+04  8.67529306E+03  2.45500998E+03
  7.99162178E+02  2.86900215E+02  1.11254132E+02  4.38641526E+01  2.79326692E+02
  8.62747324E+01  1.35557561E+01  5.69781128E+00  8.56365826E+00  1.39882968E+00
  5.72881711E-01  9.00961713E-02  3.41258851E-02  1.30643989E+03  3.09253114E+02
  9.89962740E+01  3.67569165E+01  1.45666571E+01  5.87399374E+00  2.28909997E+01
  3.08550018E+00  1.21323291E+00  4.49316807E-01  4.37200745E+01  1.23912427E+01
  4.26394420E+00  1.55252218E+00  5.37619295E-01  1.64931731E-01  1.20675000E-01
  5.10000000E-02  1.14700000E+00
Contraction coefficients                   R   N=          72
  2.42904776E-04  1.88435236E-03  9.80095844E-03  3.98250087E-02  1.29405437E-01
  3.06290018E-01  4.34628350E-01  2.24695629E-01 -2.43633579E-02 -1.15114954E-01
  5.50922663E-01  5.36113547E-01 -3.71230177E-01  1.16811695E+00  1.00000000E+00
  1.00000000E+00  1.00000000E+00  2.82928007E-03  2.27766292E-02  1.05645619E-01
  2.99499449E-01  4.77062454E-01  2.76542344E-01 -1.94121061E-02  3.86188758E-01
  6.76239089E-01  1.00000000E+00  2.20932593E-02  1.28014388E-01  3.86529103E-01
  6.41033014E-01  1.00000000E+00  1.00000000E+00  1.00000000E+00  1.00000000E+00
  1.00000000E+00  2.42904776E-04  1.88435236E-03  9.80095844E-03  3.98250087E-02
  1.29405437E-01  3.06290018E-01  4.34628350E-01  2.24695629E-01 -2.43633579E-02
 -1.15114954E-01  5.50922663E-01  5.36113547E-01 -3.71230177E-01  1.16811695E+00
  1.00000000E+00  1.00000000E+00  1.00000000E+00  2.82928007E-03  2.27766292E-02
  1.05645619E-01  2.99499449E-01  4.77062454E-01  2.76542344E-01 -1.94121061E-02
  3.86188758E-01  6.76239089E-01  1.00000000E+00  2.20932593E-02  1.28014388E-01
  3.86529103E-01  6.41033014E-01  1.00000000E+00  1.00000000E+00  1.00000000E+00
  1.00000000E+00  1.00000000E+00
Coordinates of each shell                  R   N=          90
  0.00000000E+00  0.00000000E+00  0.00000000E+00  0.00000000E+00  0.00000000E+00
  0.00000000E+00  0.00000000E+00  0.00000000E+00  0.00000000E+00  0.00000000E+00
  0.00000000E+00  0.00000000E+00  0.00000000E+00  0.00000000E+00  0.00000000E+00
  0.00000000E+00  0.00000000E+00  0.00000000E+00  0.00000000E+00  0.00000000E+00
  0.00000000E+00  0.00000000E+00  0.00000000E+00  0.00000000E+00  0.00000000E+00
  0.00000000E+00  0.00000000E+00  0.00000000E+00  0.00000000E+00  0.00000000E+00
  0.00000000E+00  0.00000000E+00  0.00000000E+00  0.00000000E+00  0.00000000E+00
  0.00000000E+00  0.00000000E+00  0.00000000E+00  0.00000000E+00  0.00000000E+00
  0.00000000E+00  0.00000000E+00  0.00000000E+00  0.00000000E+00  0.00000000E+00
  0.00000000E+00  0.00000000E+00  5.66917840E+00  0.00000000E+00  0.00000000E+00
  5.66917840E+00  0.00000000E+00  0.00000000E+00  5.66917840E+00  0.00000000E+00
  0.00000000E+00  5.66917840E+00  0.00000000E+00  0.00000000E+00  5.66917840E+00
  0.00000000E+00  0.00000000E+00  5.66917840E+00  0.00000000E+00  0.00000000E+00
  5.66917840E+00  0.00000000E+00  0.00000000E+00  5.66917840E+00  0.00000000E+00
  0.00000000E+00  5.66917840E+00  0.00000000E+00  0.00000000E+00  5.66917840E+00
  0.00000000E+00  0.00000000E+00  5.66917840E+00  0.00000000E+00  0.00000000E+00
  5.66917840E+00  0.00000000E+00  0.00000000E+00  5.66917840E+00  0.00000000E+00
  0.00000000E+00  5.66917840E+00  0.00000000E+00  0.00000000E+00  5.66917840E+00
Constraint Structure                       R   N=           6
  0.00000000E+00  0.00000000E+00  0.00000000E+00  0.00000000E+00  0.00000000E+00
  5.66917840E+00
Num ILSW                                   I              100
ILSW                                       I   N=         100
           1           0           0           0           2           1
           0           0           0           0           0          -1
           0           0           0           0           0           0
           0           0           0           0           0           0
           1           1           0           0           0           0
           0           0      100000           0          -1           0
           0           0           0           0           0           0
           0           0           0           1           0           0
           0           0           1           0           0           0
           0           0           4          40           0           0
           0           0           0           0           0           0
           0           0           0           0           0           0
           0           0           0           0           0           0
           0           0           0           0           0           0
           0           0           0           0           0           0
           0           0           0           0           0           0
           0           0           0           0
Num RLSW                                   I               40
RLSW                                       R   N=          40
  1.00000000E+00  1.00000000E+00  1.00000000E+00  1.00000000E+00  1.00000000E+00
  0.00000000E+00  0.00000000E+00  1.00000000E+00  0.00000000E+00  0.00000000E+00
  0.00000000E+00  0.00000000E+00  1.00000000E+00  0.00000000E+00  0.00000000E+00
  0.00000000E+00  0.00000000E+00  1.00000000E+00  0.00000000E+00  0.00000000E+00
  0.00000000E+00  0.00000000E+00  1.00000000E+00  0.00000000E+00  0.00000000E+00
  0.00000000E+00  0.00000000E+00  1.00000000E+00  0.00000000E+00  0.00000000E+00
  0.00000000E+00  0.00000000E+00  1.00000000E+00  0.00000000E+00  0.00000000E+00
  0.00000000E+00  0.00000000E+00  0.00000000E+00  1.00000000E+00  1.00000000E+00
ECP-MxAtEC                                 I           250000
ECP-MaxLECP                                I               10
ECP-MaxAtL                                 I          2250000
ECP-MxTECP                                 I         11250000
ECP-LenNCZ                                 I                0
ECP-KFirst                                 I   N=          20
           0           0           0           0           0           0
           0           0           0           0           0           0
           0           0           0           0           0           0
           0           0
ECP-KLast                                  I   N=          20
           0           0           0           0           0           0
           0           0           0           0           0           0
           0           0           0           0           0           0
           0           0
ECP-LMax                                   I   N=           2
           0           0
ECP-LPSkip                                 I   N=           2
           1           1
ECP-RNFroz                                 R   N=           2
  0.00000000E+00  0.00000000E+00
ECP-NLP                                    I                0
ECP-CLP1                                   R      0.000000000000000E+00
ECP-CLP2                                   R      0.000000000000000E+00
ECP-ZLP                                    R      0.000000000000000E+00
MxBond                                     I                1
NBond                                      I   N=           2
           0           0
IBond                                      I   N=           2
           0           0
RBond                                      R   N=           2
  0.00000000E+00  0.00000000E+00
Virial Ratio                               R      2.000014116054456E+00
SCF Energy                                 R     -2.086669893077688E+03
Total Energy                               R     -2.086669893077688E+03
S**2                                       R      5.674569458496531E+00
S**2 after annihilation                    R      1.770799823535780E+01
RMS Density                                R      1.813221425799566E-09
External E-field                           R   N=          35
  0.00000000E+00  0.00000000E+00  0.00000000E+00  0.00000000E+00  0.00000000E+00
  0.00000000E+00  0.00000000E+00  0.00000000E+00  0.00000000E+00  0.00000000E+00
  0.00000000E+00  0.00000000E+00  0.00000000E+00  0.00000000E+00  0.00000000E+00
  0.00000000E+00  0.00000000E+00  0.00000000E+00  0.00000000E+00  0.00000000E+00
  0.00000000E+00  0.00000000E+00  0.00000000E+00  0.00000000E+00  0.00000000E+00
  0.00000000E+00  0.00000000E+00  0.00000000E+00  0.00000000E+00  0.00000000E+00
  0.00000000E+00  0.00000000E+00  0.00000000E+00  0.00000000E+00  0.00000000E+00
IOpCl                                      I                1
IROHF                                      I                0
Alpha Orbital Energies                     R   N=          90
 -2.20386208E+02 -2.20384304E+02 -2.62602382E+01 -2.61594614E+01 -2.21890576E+01
 -2.21890576E+01 -2.21888938E+01 -2.20911795E+01 -2.20906601E+01 -2.20906601E+01
 -3.45779876E+00 -3.11222977E+00 -2.26049918E+00 -2.26049918E+00 -2.26032073E+00
 -1.84165400E+00 -1.83995533E+00 -1.83995533E+00 -3.71460807E-01 -3.71460807E-01
 -3.71085365E-01 -3.71085365E-01 -3.70903561E-01 -2.23564529E-01  2.58324783E-02
  9.61709063E-02  9.61709063E-02  1.02945554E-01  1.36889047E-01  1.46570245E-01
  1.46570245E-01  1.46960486E-01  1.46960486E-01  1.71896870E-01  1.90405586E-01
  1.90405586E-01  2.13280760E-01  2.13280760E-01  2.21276084E-01  2.88063539E-01
  3.42838490E-01  3.42838490E-01  3.85557625E-01  3.93832267E-01  3.93832267E-01
  3.99280374E-01  3.99280374E-01  5.10116716E-01  6.55715973E-01  6.55715973E-01
  6.62579767E-01  6.62579767E-01  7.69260158E-01  8.39414461E-01  8.39414461E-01
  8.56621829E-01  8.56621829E-01  9.40950791E-01  1.66757184E+00  1.66757184E+00
  1.78531526E+00  1.82951315E+00  1.82951315E+00  1.90360310E+00  2.35243015E+00
  2.48934205E+00  2.48934205E+00  2.49855462E+00  2.49855462E+00  2.52349076E+00
  2.62632404E+00  2.67728705E+00  2.67728705E+00  2.68198811E+00  2.68198811E+00
  2.76175497E+00  3.33470333E+00  3.33470333E+00  3.33483534E+00  3.33483534E+00
  3.34072689E+00  3.34072689E+00  3.37200899E+00  3.56891117E+00  3.56891117E+00
  3.56930755E+00  3.56930755E+00  3.57274013E+00  3.57274013E+00  3.60515318E+00
Beta Orbital Energies                      R   N=          90
 -2.20386208E+02 -2.20384304E+02 -2.62602382E+01 -2.61594614E+01 -2.21890576E+01
 -2.21890576E+01 -2.21888938E+01 -2.20911795E+01 -2.20906601E+01 -2.20906601E+01
 -3.45779876E+00 -3.11222977E+00 -2.26049918E+00 -2.26049918E+00 -2.26032073E+00
 -1.84165400E+00 -1.83995533E+00 -1.83995533E+00 -3.71460807E-01 -3.71460807E-01
 -3.71085365E-01 -3.71085365E-01 -3.70903561E-01 -2.23564529E-01  2.58324783E-02
  9.61709063E-02  9.61709063E-02  1.02945554E-01  1.36889047E-01  1.46570245E-01
  1.46570245E-01  1.46960486E-01  1.46960486E-01  1.71896870E-01  1.90405586E-01
  1.90405586E-01  2.13280760E-01  2.13280760E-01  2.21276084E-01  2.88063539E-01
  3.42838490E-01  3.42838490E-01  3.85557625E-01  3.93832267E-01  3.93832267E-01
  3.99280374E-01  3.99280374E-01  5.10116716E-01  6.55715973E-01  6.55715973E-01
  6.62579767E-01  6.62579767E-01  7.69260158E-01  8.39414461E-01  8.39414461E-01
  8.56621829E-01  8.56621829E-01  9.40950791E-01  1.66757184E+00  1.66757184E+00
  1.78531526E+00  1.82951315E+00  1.82951315E+00  1.90360310E+00  2.35243015E+00
  2.48934205E+00  2.48934205E+00  2.49855462E+00  2.49855462E+00  2.52349076E+00
  2.62632404E+00  2.67728705E+00  2.67728705E+00  2.68198811E+00  2.68198811E+00
  2.76175497E+00  3.33470333E+00  3.33470333E+00  3.33483534E+00  3.33483534E+00
  3.34072689E+00  3.34072689E+00  3.37200899E+00  3.56891117E+00  3.56891117E+00
  3.56930755E+00  3.56930755E+00  3.57274013E+00  3.57274013E+00  3.60515318E+00
Alpha MO coefficients                      R   N=        8100
  9.97812792E-01  6.96698831E-03 -2.29984872E-03  1.53889394E-03 -5.95388619E-04
  2.13146531E-04 -2.28592377E-17 -3.25134679E-17  1.56500061E-06 -1.03466941E-16
 -2.94817111E-17 -1.55962653E-05  1.79877847E-16  7.32203066E-17  5.33601973E-05
 -7.41982682E-06 -7.72661287E-18 -6.14301600E-17  2.88919124E-17 -2.70260498E-17
  3.10877301E-05  1.33445440E-17  8.62568502E-17 -2.58455255E-17  9.42329718E-18
 -1.06003083E-04  1.64209245E-17 -5.15645076E-17 -1.71274887E-17  2.91388341E-17
 -1.73776801E-16 -1.20890274E-16 -1.63166677E-04  3.57818806E-06 -6.38435858E-17
  1.45397482E-17  2.17142089E-17  5.45754984E-19 -4.37423092E-06 -1.77395327E-16
  3.08679253E-16 -2.73457083E-16 -3.72619945E-16 -8.41512983E-17 -2.77345674E-17
 -6.38026865E-04  1.89163506E-06  3.97969124E-05 -8.57671866E-05  1.38529915E-04
 -1.06552247E-05 -1.17805802E-16 -8.27438930E-17  2.77102983E-06  1.42245082E-17
  3.82735187E-17 -1.47379911E-05 -4.93632764E-17 -5.29769456E-17  5.50514447E-05
  1.92747312E-06  1.65449304E-16 -2.21773784E-17  8.07625690E-17 -1.68848513E-16
 -1.48010721E-05 -2.31431114E-16  8.13546018E-17 -1.07842773E-16  1.89195285E-16
  9.39462030E-05  2.30027870E-16  5.95432634E-17  4.24160952E-17 -9.03507342E-17
  9.41732613E-17  2.44951439E-17 -1.87746790E-04  3.69717187E-05 -1.74203642E-16
 -1.25493017E-16 -1.34309225E-17  4.08486541E-18 -6.20681449E-06 -1.73596767E-16
 -7.38617330E-17  2.92864233E-16  1.01413150E-16 -5.18767153E-16  4.01280042E-16
  6.41690613E-04  1.08365353E-05  3.69418876E-05 -8.40383706E-05  1.38184067E-04
 -1.04104721E-05  5.72089130E-17  7.24346822E-17 -2.77548960E-06  7.87113011E-17
 -6.19664213E-17  1.47601666E-05 -1.11058349E-16  1.15685658E-16 -5.51358117E-05
  1.93838267E-06  2.25627553E-17  1.02122122E-16 -1.98363293E-17 -9.25441912E-18
 -1.47943866E-05 -6.59424441E-17 -7.85671783E-17 -6.68988988E-18  2.58634676E-18
  9.40784471E-05  1.09658201E-16  1.76914639E-17  5.38096495E-17  2.79731425E-18
  5.41721818E-17 -1.41920062E-16  1.88067766E-04  3.70766006E-05 -5.78404837E-17
 -6.51605403E-17 -2.73221782E-17  2.10873522E-17  6.22010180E-06 -5.38005758E-17
  8.30103926E-16 -1.92444195E-16  1.55511847E-16 -3.43013043E-16  2.16061713E-16
  9.97818535E-01  6.94708485E-03 -2.30700649E-03  1.54240274E-03 -5.96811789E-04
  2.13708410E-04  1.13358505E-16 -1.15461258E-16 -1.54554750E-06  4.85746497E-17
  4.18282714E-17  1.56317691E-05 -7.69744775E-17 -1.05574052E-16 -5.34412158E-05
 -7.43038973E-06  2.44053742E-16  2.81022068E-16 -5.95375716E-17 -8.79110432E-17
  3.11428938E-05 -2.90936394E-16 -4.27003021E-16  2.72831760E-17  1.49336689E-16
 -1.06148410E-04  2.01074098E-16  5.36573197E-16  4.76944887E-17 -9.61753461E-17
  5.88465712E-17  1.54084300E-16  1.63369727E-04  3.63147175E-06 -4.51968564E-17
 -3.10760191E-16 -3.01870568E-17  2.13347743E-17  4.43915578E-06 -2.33156893E-16
 -1.44367473E-16  3.17877242E-16 -1.59437181E-16 -8.14400884E-16 -2.97107303E-16
 -3.11643977E-01  1.03616032E+00  3.60237536E-02 -9.72837112E-03  3.12818663E-03
 -1.12280986E-03 -1.26387314E-15 -1.14160246E-15 -1.55156841E-04  1.05273135E-17
  6.12990556E-17  5.36311615E-05 -4.39649227E-18 -1.86735548E-16 -2.46917770E-04
  3.28809440E-05  1.63381889E-17  3.07356410E-17 -4.92222036E-16  1.83102461E-17
 -1.47357334E-04 -4.33000076E-17  4.29030510E-19  1.98741327E-16  8.29686871E-17
  5.00300163E-04  6.15605092E-17 -7.32336707E-17 -6.05363825E-17 -2.12820791E-16
 -8.02564578E-17  2.67906374E-16  7.66989207E-04 -1.65498831E-05 -8.66163626E-17
  1.95420586E-16  9.26716701E-17  2.15389620E-16  1.51799610E-05 -2.20504127E-16
 -7.97806919E-16  7.00004382E-16 -2.62212789E-16  9.48276356E-17 -2.12151997E-16
 -2.07957168E-07 -5.50449144E-05 -1.70068615E-04  3.87148157E-04 -6.58273219E-04
  6.28482969E-05  9.86067681E-17  2.13720385E-16 -1.14108726E-05 -2.34748615E-17
 -6.20992034E-17  6.29821654E-05 -1.53052220E-17  1.69978536E-16 -2.46881235E-04
 -4.99228771E-06  7.12015144E-17 -9.98268340E-17 -1.09029183E-17 -8.81582146E-17
  5.55036863E-05 -7.35148039E-17  1.46633831E-16 -2.10729397E-16  9.33799241E-17
 -4.26402410E-04  2.04911310E-17 -5.16535825E-17  3.81514603E-16  5.93907124E-17
  1.20995512E-16 -2.75569127E-16  8.89627261E-04 -1.91912712E-04 -4.83077110E-17
  1.66971126E-16 -3.34381898E-16 -1.58410815E-16  2.70568603E-05 -3.82615529E-17
  3.98431016E-16 -1.93700502E-16 -1.50807440E-16 -2.03604884E-16  5.13734529E-16
 -1.34167463E-05  4.49196095E-06 -1.20294214E-04  2.79563418E-04 -4.79432319E-04
  4.78388277E-05  2.59065988E-16  4.95414125E-16  7.58068763E-06 -9.64588374E-19
  1.54437472E-16 -4.42282044E-05  7.83495996E-17 -2.93571054E-16  1.75946368E-04
 -3.37518244E-06 -5.89943629E-17  4.05443695E-17  3.16889318E-17 -3.96842674E-18
  3.63906935E-05  4.14461923E-17 -2.63442147E-17  2.12813520E-18  3.17680405E-17
 -3.05367749E-04  3.75108021E-17 -3.91684747E-17 -4.85455017E-17 -7.40818704E-17
 -1.98918398E-16  3.70024760E-16 -6.44136217E-04 -1.41139660E-04 -1.50262910E-16
  2.88923760E-16 -2.53248608E-17  8.91757739E-17 -1.99012607E-05 -3.01904879E-18
  4.64333364E-16 -3.42933936E-16  5.92478755E-16  2.42716030E-16 -1.37961986E-16
 -3.12245453E-01  1.03774064E+00  3.05599512E-02 -7.99329093E-03  2.29563175E-03
 -8.26520232E-04  5.99000555E-16 -2.98977809E-16  1.45932370E-04  2.46020065E-18
 -2.60299869E-16 -3.60135770E-05 -8.42394919E-17  4.41819429E-16  1.78231208E-04
  3.82116341E-05  8.28589360E-17 -1.91669187E-17  9.98722261E-16 -3.23322054E-17
 -1.12000817E-04 -5.10618815E-17  6.47752997E-17 -4.74679792E-16  1.32323577E-16
  3.63603788E-04  1.65949688E-17  1.22894019E-17  7.23780914E-17 -1.53680049E-16
  2.41477457E-16 -5.14295537E-16 -5.53292775E-04 -1.25791493E-05 -1.15001029E-16
  2.16161377E-16  5.64924491E-17  3.15816734E-17 -1.34747838E-05  1.59834045E-16
  1.25868453E-16  4.25676280E-16  1.78494034E-16 -7.09703638E-18  3.36017591E-16
 -9.38008155E-16  4.14184178E-15  2.42815021E-15 -6.33860724E-15  6.64362924E-15
  1.47553411E-14  7.27380940E-01 -6.72911701E-01  2.09842166E-11  1.84425489E-02
 -1.70614959E-02  5.34130349E-13 -3.72408608E-03  3.44521139E-03 -1.14635390E-13
  6.16299164E-16 -7.02545633E-06  6.49936162E-06  2.30783146E-16 -5.18240095E-16
 -2.96234043E-15 -1.15914495E-05  1.07234347E-05 -3.05083879E-17  7.86589989E-16
  1.03225239E-14  2.68747419E-05 -2.48622521E-05 -9.54516188E-17 -3.58482134E-16
  1.26310184E-03 -1.16851564E-03  5.51036071E-14  6.61983825E-15  1.65012290E-04
 -1.52655500E-04  2.85828937E-16 -1.48941339E-16  4.85002876E-16  2.68821621E-06
 -2.48691167E-06  4.93621278E-16 -1.03226993E-16  9.09680547E-17 -2.15535659E-16
  1.69231931E-17 -2.92487823E-16  1.54726082E-16  3.95262332E-15 -1.95894034E-14
 -7.99162574E-15  1.87139757E-06 -1.73125944E-06  7.21463639E-15 -4.06832434E-05
  3.76367169E-05  1.13689776E-15  1.15554665E-04 -1.06901462E-04 -4.09604956E-15
 -1.17039345E-16 -5.00361818E-06  4.62892693E-06 -3.71818254E-17  7.20508254E-16
 -3.66188282E-16  1.26322101E-05 -1.16862589E-05 -9.53024484E-16 -3.05301021E-16
 -7.33210728E-15 -4.44856088E-06  4.11543458E-06  5.97956626E-16 -2.44936905E-17
 -2.48487568E-04  2.29879810E-04  2.32155688E-14 -8.02396728E-16  2.92290756E-04
 -2.70402837E-04 -2.82928618E-16  2.43366543E-16  7.43708252E-16 -7.15624414E-06
  6.62035551E-06 -1.47156401E-16  1.82835821E-16  3.34273996E-16 -4.19109890E-17
 -6.09199694E-17 -9.58223250E-17 -2.19604275E-16  2.42224903E-15 -4.25514973E-15
 -5.24549357E-15  6.72911701E-01  7.27380940E-01 -7.97410529E-12  1.70614959E-02
  1.84425489E-02 -2.03110336E-13 -3.44521139E-03 -3.72408608E-03  4.39526452E-14
 -2.77639823E-16 -6.49936162E-06 -7.02545633E-06  1.17342616E-15  1.01364465E-15
  1.06718540E-15 -1.07234347E-05 -1.15914495E-05 -1.72307635E-15 -1.51579963E-15
 -4.74084470E-15  2.48622521E-05  2.68747419E-05  7.70650685E-16  1.03753968E-15
  1.16851564E-03  1.26310184E-03 -2.26645413E-14 -2.75114639E-15  1.52655500E-04
  1.65012290E-04 -5.65828032E-16 -6.08866553E-16  3.92314456E-17  2.48691167E-06
  2.68821622E-06 -8.00376291E-16  3.42824821E-16 -4.55133429E-16  7.07541951E-17
  1.87774187E-16 -1.61521653E-16  1.28572050E-15 -3.88530541E-15  1.02847078E-14
  2.19671958E-15  1.73125914E-06  1.87139723E-06 -4.41316328E-15 -3.76367169E-05
 -4.06832434E-05  3.09132932E-16  1.06901462E-04  1.15554665E-04  9.21017320E-16
 -1.18439873E-16 -4.62892693E-06 -5.00361818E-06  8.54648728E-16  1.27156581E-16
  7.34003087E-16  1.16862589E-05  1.26322101E-05 -1.78270038E-15  5.51685089E-17
  2.54225069E-15 -4.11543458E-06 -4.44856088E-06  1.32309742E-15 -1.39515998E-16
 -2.29879810E-04 -2.48487568E-04 -1.04829630E-14  1.05082128E-15  2.70402837E-04
  2.92290756E-04 -2.68115701E-16  3.30529672E-16 -6.78986030E-16 -6.62035551E-06
 -7.15624414E-06 -6.64411770E-16 -3.77473414E-17 -3.03570916E-16  4.38180577E-16
 -3.97864755E-05  1.89964065E-04  1.49655207E-04 -3.61647885E-04  4.04411623E-04
  7.14715840E-04 -9.98867276E-12  2.01038787E-11  9.90881572E-01 -2.53005859E-13
  5.09603670E-13  2.52508116E-02  5.09093507E-14 -1.03075668E-13 -5.48034872E-03
  2.06431971E-05  2.31665442E-16 -1.82687752E-16 -3.33152963E-18 -8.87971868E-17
 -1.64595409E-04 -3.82760914E-16 -4.26730424E-16 -4.51186048E-17  1.25389602E-16
  5.35623825E-04  4.27942654E-16  1.01226182E-15  1.00593164E-16 -8.45381433E-17
 -1.71422417E-14  3.48943337E-14  2.72025250E-03  3.62078615E-04 -2.60417834E-15
  4.17729215E-15 -1.41945166E-16  7.19957577E-17  1.89246652E-05 -4.83961248E-16
  6.08613951E-16 -8.71498065E-17  6.45834863E-16 -1.35061891E-16 -6.07663950E-17
 -7.71876178E-06 -2.89317450E-05 -1.62528014E-04  4.11342785E-04 -1.08967031E-03
 -3.79371170E-04 -1.32617466E-14 -1.17351160E-14 -7.06098070E-06  3.28518670E-16
 -1.24083504E-15  4.78262041E-05 -1.50486574E-15  3.06870783E-15 -2.23108523E-04
  2.00454446E-05 -7.21319302E-17 -1.86195298E-16 -2.52727447E-17  8.20582310E-17
 -3.61165154E-05 -2.39025913E-16  3.20004672E-16  4.12205589E-18 -1.14016797E-16
 -3.86318995E-04  4.03107580E-16 -2.05401759E-17  1.83258004E-17  8.63153169E-17
  3.28822086E-15 -6.70252874E-15  1.20899190E-03 -4.09944893E-05 -4.10154803E-15
  7.91724350E-15  7.22852958E-17 -7.78600259E-17  3.05290980E-05  2.12967045E-17
 -3.87037058E-16  6.41892478E-16 -3.19318372E-16  2.16908677E-16  5.22437984E-16
  3.83900974E-06  1.55898457E-05  8.30743841E-05 -2.17983743E-04  6.03587554E-04
  2.14940671E-04 -2.26162941E-15  8.49321948E-15 -5.63843304E-06 -6.08081399E-16
 -7.29667190E-16  2.18257095E-05  1.47184322E-15  2.39839302E-15 -1.13361039E-04
 -1.33972407E-05 -3.64089954E-17  1.06034738E-16 -1.53483237E-17 -9.11724714E-18
  3.00178031E-05  1.44593551E-16 -2.75186772E-16  7.80431847E-17  1.11547060E-16
  1.94450404E-04 -3.66740347E-16  8.73074717E-17 -1.30336733E-16 -2.40983373E-16
 -2.94866993E-15 -4.77024044E-15  6.59710409E-04  2.46602884E-05 -3.12191628E-15
 -5.28292312E-15  1.04408981E-16  2.51633521E-16  1.69148542E-05  1.03540082E-16
 -4.34469066E-17  1.35079919E-16 -1.06111277E-15  1.26655757E-16  6.70083578E-16
  4.13423428E-05 -1.69626787E-04 -7.18285805E-05  1.89938189E-04 -2.02967691E-04
 -4.10068334E-04  1.49675251E-11  2.24197928E-11  9.93437325E-01  2.74295373E-13
  4.11167893E-13  1.82821022E-02 -5.46762686E-14 -8.25010355E-14 -3.85750161E-03
 -1.13586037E-05  2.99771949E-16  1.68296502E-16 -1.07091303E-16 -1.33569154E-16
  8.90877549E-05  4.12241199E-17  3.35205694E-16  4.66396097E-17  1.93195601E-16
 -2.84894589E-04 -4.17102459E-16 -5.77044993E-16  1.09486171E-16 -7.98137006E-17
  1.47540462E-14  2.29571641E-14  1.54056134E-03 -2.09815662E-04 -1.86428143E-15
 -3.04290591E-15 -1.00997980E-16 -1.20423828E-16  1.37675708E-05  3.85229591E-16
 -4.01882896E-16  5.98492411E-16  1.59047724E-15  6.26177012E-16  5.58485795E-16
 -5.30714974E-17 -5.58816515E-16 -2.26161354E-15  5.63728466E-15 -1.59397982E-14
 -4.52704171E-15  1.15734691E-05  9.18798142E-06  1.77428452E-14 -2.42129920E-05
 -1.92222842E-05 -1.30998151E-16  7.06638121E-05  5.60988036E-05  2.46368962E-15
  1.16236039E-15  3.65243893E-06  2.89960940E-06 -3.40640122E-17  2.23831318E-16
 -1.40105883E-15 -9.15144349E-06 -7.26517598E-06  4.37939369E-16 -3.61485350E-17
 -4.16746406E-15  4.30234456E-06  3.41555847E-06 -7.99848227E-16 -4.44540180E-16
 -1.53359455E-04 -1.21749474E-04 -1.67314331E-14 -1.60162596E-16 -1.80150724E-04
 -1.43018609E-04  2.99681218E-16  2.85169484E-16 -5.17366863E-16 -4.54282857E-06
 -3.60647466E-06  1.47401487E-16  1.81355304E-17  2.06474423E-16 -7.56927747E-17
 -1.00251092E-15  4.14912745E-15  2.45094398E-15 -5.13576987E-15  3.96365621E-15
  1.12862088E-14  7.78071773E-01  6.17698002E-01 -2.56614915E-11  1.42616356E-02
  1.13220710E-02 -4.73009820E-13 -2.84850861E-03 -2.26138274E-03  1.00420615E-13
  3.75744944E-16  1.08241178E-05  8.59308378E-06 -3.91438119E-16 -3.47486559E-16
 -2.26607904E-15  3.64327142E-06  2.89233147E-06  3.31448265E-16  3.44839310E-16
  7.06753981E-15 -1.46512595E-05 -1.16313868E-05 -9.31169479E-17  1.37639841E-16
  7.80653934E-04  6.19747936E-04 -3.93582112E-14  5.38645560E-15 -1.01897004E-04
 -8.08943057E-05  1.23226357E-16 -1.64851796E-16 -4.86489941E-16  1.46670767E-06
  1.16439438E-06 -1.46713801E-17  8.16596534E-17  1.75386467E-17  2.23239262E-16
 -4.09252090E-17 -2.60549397E-16 -1.27350693E-15  2.55399466E-15 -5.36800785E-15
  3.45396910E-16 -9.18798104E-06  1.15734688E-05  1.15777936E-15  1.92222842E-05
 -2.42129920E-05 -5.95200475E-16 -5.60988036E-05  7.06638121E-05  1.27676021E-15
  1.12649130E-15 -2.89960940E-06  3.65243893E-06 -7.51532715E-16  1.32565502E-15
 -1.60420405E-15  7.26517599E-06 -9.15144349E-06  8.98979974E-16 -2.14293863E-15
  5.50489954E-16 -3.41555848E-06  4.30234456E-06  2.00728826E-16  1.48815920E-15