[Molden Format]
[N_ATOMS]
                    2
[ATOMS] (AU)
CR1         1     24           0.00000000      0.00000000      0.00000000
CR2         2     24           0.00000000      0.00000000      5.66917839
[5D]
[7F]
[CHARGE] (MULLIKEN)
   1.1117492704215692E-008
  -1.1118626019879230E-008
[GTO] (AU)
   1
   s   8
  0.254477807E+06  0.242904776E-03
  0.381317971E+05  0.188435236E-02
  0.867529306E+04  0.980095844E-02
  0.245500998E+04  0.398250087E-01
  0.799162178E+03  0.129405437E+00
  0.286900215E+03  0.306290018E+00
  0.111254132E+03  0.434628350E+00
  0.438641526E+02  0.224695629E+00
   s   4
  0.279326692E+03 -0.243633579E-01
  0.862747324E+02 -0.115114954E+00
  0.135557561E+02  0.550922663E+00
  0.569781128E+01  0.536113547E+00
   s   2
  0.856365826E+01 -0.371230176E+00
  0.139882968E+01  0.116811695E+01
   s   1
  0.572881711E+00  0.100000000E+01
   s   1
  0.900961713E-01  0.100000000E+01
   s   1
  0.341258851E-01  0.100000000E+01
   p   6
  0.130643989E+04  0.282928007E-02
  0.309253114E+03  0.227766292E-01
  0.989962740E+02  0.105645619E+00
  0.367569165E+02  0.299499449E+00
  0.145666571E+02  0.477062454E+00
  0.587399374E+01  0.276542344E+00
   p   3
  0.228909997E+02 -0.194121061E-01
  0.308550018E+01  0.386188758E+00
  0.121323291E+01  0.676239089E+00
   p   1
  0.449316807E+00  0.100000000E+01
   p   1
  0.120675000E+00  0.100000000E+01
   d   4
  0.437200745E+02  0.220932593E-01
  0.123912427E+02  0.128014388E+00
  0.426394420E+01  0.386529103E+00
  0.155252218E+01  0.641033014E+00
   d   1
  0.537619295E+00  0.100000000E+01
   d   1
  0.164931731E+00  0.100000000E+01
   d   1
  0.510000000E-01  0.100000000E+01
   f   1
  0.114700000E+01  0.100000000E+01
 
   2
   s   8
  0.254477807E+06  0.242904776E-03
  0.381317971E+05  0.188435236E-02
  0.867529306E+04  0.980095844E-02
  0.245500998E+04  0.398250087E-01
  0.799162178E+03  0.129405437E+00
  0.286900215E+03  0.306290018E+00
  0.111254132E+03  0.434628350E+00
  0.438641526E+02  0.224695629E+00
   s   4
  0.279326692E+03 -0.243633579E-01
  0.862747324E+02 -0.115114954E+00
  0.135557561E+02  0.550922663E+00
  0.569781128E+01  0.536113547E+00
   s   2
  0.856365826E+01 -0.371230176E+00
  0.139882968E+01  0.116811695E+01
   s   1
  0.572881711E+00  0.100000000E+01
   s   1
  0.900961713E-01  0.100000000E+01
   s   1
  0.341258851E-01  0.100000000E+01
   p   6
  0.130643989E+04  0.282928007E-02
  0.309253114E+03  0.227766292E-01
  0.989962740E+02  0.105645619E+00
  0.367569165E+02  0.299499449E+00
  0.145666571E+02  0.477062454E+00
  0.587399374E+01  0.276542344E+00
   p   3
  0.228909997E+02 -0.194121061E-01
  0.308550018E+01  0.386188758E+00
  0.121323291E+01  0.676239089E+00
   p   1
  0.449316807E+00  0.100000000E+01
   p   1
  0.120675000E+00  0.100000000E+01
   d   4
  0.437200745E+02  0.220932593E-01
  0.123912427E+02  0.128014388E+00
  0.426394420E+01  0.386529103E+00
  0.155252218E+01  0.641033014E+00
   d   1
  0.537619295E+00  0.100000000E+01
   d   1
  0.164931731E+00  0.100000000E+01
   d   1
  0.510000000E-01  0.100000000E+01
   f   1
  0.114700000E+01  0.100000000E+01
 
[MO]
Sym=     1a  
Ene=  -220.3800
Spin= Alpha
Occup=    2.00000
   1         0.69814098
   2         0.00486314
   3        -0.00163910
   4         0.00113859
   5        -0.00051584
   6         0.00015693
   7        -0.00000000
   8        -0.00000000
   9         0.00000263
  10        -0.00000000
  11        -0.00000000
  12        -0.00002128
  13         0.00000000
  14         0.00000000
  15         0.00007661
  16        -0.00000000
  17        -0.00000000
  18        -0.00024838
  19        -0.00000657
  20        -0.00000000
  21        -0.00000000
  22         0.00000000
  23        -0.00000000
  24         0.00003234
  25         0.00000000
  26        -0.00000000
  27         0.00000000
  28         0.00000000
  29        -0.00014136
  30        -0.00000000
  31         0.00000000
  32        -0.00000000
  33        -0.00000000
  34        -0.00002392
  35         0.00000000
  36        -0.00000000
  37         0.00000000
  38        -0.00000000
  39        -0.00000752
  40        -0.00000000
  41         0.00000000
  42        -0.00000000
  43        -0.00000000
  44         0.00000000
  45        -0.00000000
  46        -0.71290391
  47        -0.00496617
  48         0.00167261
  49        -0.00116013
  50         0.00052261
  51        -0.00015993
  52        -0.00000000
  53        -0.00000000
  54         0.00000261
  55         0.00000000
  56         0.00000000
  57        -0.00002129
  58         0.00000000
  59        -0.00000000
  60         0.00007658
  61        -0.00000000
  62         0.00000000
  63        -0.00024802
  64         0.00000665
  65         0.00000000
  66         0.00000000
  67         0.00000000
  68        -0.00000000
  69        -0.00003258
  70        -0.00000000
  71        -0.00000000
  72        -0.00000000
  73        -0.00000000
  74         0.00014154
  75        -0.00000000
  76         0.00000000
  77        -0.00000000
  78         0.00000000
  79         0.00002332
  80         0.00000000
  81        -0.00000000
  82         0.00000000
  83         0.00000000
  84        -0.00000749
  85        -0.00000000
  86        -0.00000000
  87         0.00000000
  88        -0.00000000
  89        -0.00000000
  90         0.00000000
Sym=     2a  
Ene=  -220.3800
Spin= Alpha
Occup=    2.00000
   1         0.71290647
   2         0.00497508
   3        -0.00161897
   4         0.00104130
   5        -0.00032898
   6         0.00014526
   7        -0.00000000
   8        -0.00000000
   9        -0.00000127
  10         0.00000000
  11        -0.00000000
  12        -0.00000067
  13         0.00000000
  14         0.00000000
  15        -0.00000051
  16        -0.00000000
  17        -0.00000000
  18         0.00001488
  19        -0.00000394
  20        -0.00000000
  21        -0.00000000
  22         0.00000000
  23        -0.00000000
  24         0.00001188
  25         0.00000000
  26         0.00000000
  27        -0.00000000
  28        -0.00000000
  29        -0.00001000
  30        -0.00000000
  31         0.00000000
  32         0.00000000
  33         0.00000000
  34         0.00002849
  35        -0.00000000
  36        -0.00000000
  37        -0.00000000
  38         0.00000000
  39         0.00000120
  40         0.00000000
  41         0.00000000
  42        -0.00000000
  43        -0.00000000
  44        -0.00000000
  45        -0.00000000
  46         0.69814359
  47         0.00487224
  48        -0.00158432
  49         0.00101725
  50        -0.00031811
  51         0.00014194
  52         0.00000000
  53         0.00000000
  54         0.00000132
  55        -0.00000000
  56        -0.00000000
  57         0.00000022
  58        -0.00000000
  59         0.00000000
  60         0.00000211
  61        -0.00000000
  62         0.00000000
  63        -0.00002007
  64        -0.00000380
  65         0.00000000
  66         0.00000000
  67         0.00000000
  68        -0.00000000
  69         0.00001120
  70        -0.00000000
  71        -0.00000000
  72        -0.00000000
  73         0.00000000
  74        -0.00000704
  75        -0.00000000
  76         0.00000000
  77        -0.00000000
  78        -0.00000000
  79         0.00002898
  80         0.00000000
  81        -0.00000000
  82         0.00000000
  83         0.00000000
  84        -0.00000136
  85        -0.00000000
  86         0.00000000
  87         0.00000000
  88         0.00000000
  89         0.00000000
  90        -0.00000000
Sym=     3a  
Ene=   -26.2080
Spin= Alpha
Occup=    2.00000
   1        -0.22011107
   2         0.73171590
   3         0.02357460
   4        -0.00650869
   5         0.00236906
   6        -0.00068893
   7        -0.00000000
   8        -0.00000000
   9        -0.00016968
  10        -0.00000000
  11        -0.00000000
  12         0.00006499
  13         0.00000000
  14        -0.00000000
  15        -0.00029599
  16        -0.00000000
  17        -0.00000000
  18         0.00100836
  19         0.00002945
  20        -0.00000000
  21        -0.00000000
  22         0.00000000
  23        -0.00000000
  24        -0.00012354
  25         0.00000000
  26        -0.00000000
  27        -0.00000000
  28         0.00000000
  29         0.00056370
  30        -0.00000000
  31        -0.00000000
  32         0.00000000
  33        -0.00000000
  34         0.00010671
  35        -0.00000000
  36        -0.00000000
  37         0.00000000
  38         0.00000000
  39         0.00002649
  40        -0.00000000
  41         0.00000000
  42        -0.00000000
  43        -0.00000000
  44         0.00000000
  45        -0.00000000
  46         0.22104094
  47        -0.73480679
  48        -0.02367311
  49         0.00653448
  50        -0.00237615
  51         0.00069105
  52        -0.00000000
  53         0.00000000
  54        -0.00017031
  55        -0.00000000
  56        -0.00000000
  57         0.00006487
  58        -0.00000000
  59         0.00000000
  60        -0.00029600
  61         0.00000000
  62         0.00000000
  63         0.00100810
  64        -0.00002960
  65        -0.00000000
  66        -0.00000000
  67        -0.00000000
  68         0.00000000
  69         0.00012375
  70         0.00000000
  71        -0.00000000
  72        -0.00000000
  73        -0.00000000
  74        -0.00056394
  75        -0.00000000
  76         0.00000000
  77         0.00000000
  78         0.00000000
  79        -0.00010616
  80        -0.00000000
  81        -0.00000000
  82        -0.00000000
  83        -0.00000000
  84         0.00002646
  85        -0.00000000
  86        -0.00000000
  87         0.00000000
  88         0.00000000
  89        -0.00000000
  90         0.00000000
Sym=     4a  
Ene=   -26.2080
Spin= Alpha
Occup=    2.00000
   1        -0.22105688
   2         0.73479350
   3         0.02342044
   4        -0.00613106
   5         0.00168569
   6        -0.00050414
   7        -0.00000000
   8        -0.00000000
   9        -0.00015004
  10        -0.00000000
  11        -0.00000000
  12        -0.00002859
  13        -0.00000000
  14        -0.00000000
  15        -0.00000441
  16         0.00000000
  17         0.00000000
  18        -0.00005911
  19         0.00003676
  20         0.00000000
  21        -0.00000000
  22         0.00000000
  23        -0.00000000
  24        -0.00004934
  25        -0.00000000
  26         0.00000000
  27        -0.00000000
  28         0.00000000
  29         0.00005639
  30         0.00000000
  31        -0.00000000
  32         0.00000000
  33        -0.00000000
  34        -0.00013062
  35        -0.00000000
  36         0.00000000
  37        -0.00000000
  38         0.00000000
  39        -0.00000635
  40         0.00000000
  41         0.00000000
  42        -0.00000000
  43        -0.00000000
  44        -0.00000000
  45         0.00000000
  46        -0.22012708
  47         0.73170255
  48         0.02332086
  49        -0.00610357
  50         0.00167568
  51        -0.00050123
  52         0.00000000
  53        -0.00000000
  54         0.00014933
  55         0.00000000
  56         0.00000000
  57         0.00002886
  58         0.00000000
  59        -0.00000000
  60         0.00000316
  61        -0.00000000
  62        -0.00000000
  63         0.00006336
  64         0.00003663
  65        -0.00000000
  66         0.00000000
  67         0.00000000
  68        -0.00000000
  69        -0.00004882
  70        -0.00000000
  71        -0.00000000
  72        -0.00000000
  73         0.00000000
  74         0.00005401
  75         0.00000000
  76         0.00000000
  77         0.00000000
  78        -0.00000000
  79        -0.00013107
  80         0.00000000
  81         0.00000000
  82        -0.00000000
  83         0.00000000
  84         0.00000646
  85        -0.00000000
  86        -0.00000000
  87         0.00000000
  88        -0.00000000
  89        -0.00000000
  90         0.00000000
Sym=     5a  
Ene=   -22.1380
Spin= Alpha
Occup=    2.00000
   1        -0.00003675
   2         0.00011007
   3        -0.00003032
   4         0.00015526
   5        -0.00062220
   6        -0.00001081
   7        -0.00000037
   8        -0.00000018
   9         0.51384923
  10        -0.00000001
  11        -0.00000000
  12         0.01123719
  13         0.00000000
  14         0.00000000
  15        -0.00227401
  16        -0.00000000
  17        -0.00000000
  18         0.00029898
  19        -0.00000607
  20        -0.00000000
  21         0.00000000
  22        -0.00000000
  23         0.00000000
  24        -0.00010740
  25         0.00000000
  26         0.00000000
  27        -0.00000000
  28         0.00000000
  29        -0.00004669
  30         0.00000000
  31        -0.00000000
  32         0.00000000
  33        -0.00000000
  34         0.00012064
  35        -0.00000000
  36         0.00000000
  37         0.00000000
  38        -0.00000000
  39        -0.00001186
  40        -0.00000000
  41        -0.00000000
  42        -0.00000000
  43        -0.00000000
  44         0.00000000
  45        -0.00000000
  46        -0.00005760
  47         0.00020887
  48         0.00004440
  49        -0.00004618
  50        -0.00022565
  51         0.00028628
  52        -0.00000009
  53        -0.00000080
  54        -0.84874617
  55        -0.00000000
  56        -0.00000002
  57        -0.01858939
  58         0.00000000
  59         0.00000000
  60         0.00390774
  61        -0.00000000
  62        -0.00000000
  63        -0.00133312
  64        -0.00000351
  65         0.00000000
  66        -0.00000000
  67         0.00000000
  68         0.00000000
  69        -0.00013331
  70        -0.00000000
  71         0.00000000
  72        -0.00000000
  73        -0.00000000
  74         0.00019123
  75         0.00000000
  76         0.00000000
  77         0.00000000
  78        -0.00000000
  79         0.00022853
  80        -0.00000000
  81         0.00000000
  82        -0.00000000
  83        -0.00000000
  84        -0.00000155
  85         0.00000000
  86        -0.00000000
  87         0.00000000
  88        -0.00000000
  89         0.00000000
  90        -0.00000000
Sym=     6a  
Ene=   -22.1380
Spin= Alpha
Occup=    2.00000
   1        -0.00005401
   2         0.00024019
   3         0.00015373
   4        -0.00039640
   5         0.00070254
   6         0.00063823
   7        -0.00000061
   8        -0.00000031
   9         0.84874079
  10        -0.00000001
  11        -0.00000001
  12         0.01862220
  13         0.00000000
  14         0.00000000
  15        -0.00408324
  16        -0.00000000
  17        -0.00000000
  18         0.00230436
  19         0.00000402
  20         0.00000000
  21         0.00000000
  22        -0.00000000
  23         0.00000000
  24        -0.00008228
  25         0.00000000
  26        -0.00000000
  27        -0.00000000
  28        -0.00000000
  29         0.00050177
  30        -0.00000000
  31        -0.00000000
  32        -0.00000000
  33         0.00000000
  34         0.00026241
  35        -0.00000000
  36        -0.00000000
  37        -0.00000000
  38        -0.00000000
  39         0.00002602
  40         0.00000000
  41        -0.00000000
  42         0.00000000
  43         0.00000000
  44        -0.00000000
  45         0.00000000
  46         0.00003082
  47        -0.00016180
  48        -0.00015027
  49         0.00042321
  50        -0.00091092
  51        -0.00057052
  52         0.00000006
  53         0.00000049
  54         0.51384035
  55         0.00000000
  56         0.00000001
  57         0.01129139
  58        -0.00000000
  59        -0.00000000
  60        -0.00256388
  61         0.00000000
  62         0.00000000
  63         0.00190322
  64        -0.00000637
  65        -0.00000000
  66         0.00000000
  67        -0.00000000
  68        -0.00000000
  69         0.00002312
  70         0.00000000
  71         0.00000000
  72         0.00000000
  73        -0.00000000
  74        -0.00046624
  75        -0.00000000
  76        -0.00000000
  77         0.00000000
  78         0.00000000
  79        -0.00017659
  80        -0.00000000
  81        -0.00000000
  82         0.00000000
  83         0.00000000
  84         0.00002855
  85         0.00000000
  86         0.00000000
  87        -0.00000000
  88         0.00000000
  89         0.00000000
  90        -0.00000000
Sym=     7a  
Ene=   -22.1380
Spin= Alpha
Occup=    2.00000
   1         0.00000000
   2        -0.00000000
   3         0.00000000
   4        -0.00000000
   5         0.00000000
   6        -0.00000000
   7        -0.59730447
   8         0.34392547
   9        -0.00000030
  10        -0.01305776
  11         0.00751861
  12        -0.00000001
  13         0.00270118
  14        -0.00155533
  15         0.00000000
  16        -0.00098434
  17         0.00056679
  18        -0.00000000
  19         0.00000000
  20         0.00001378
  21        -0.00000793
  22        -0.00000000
  23         0.00000000
  24         0.00000000
  25        -0.00000709
  26         0.00000408
  27         0.00000000
  28        -0.00000000
  29        -0.00000000
  30        -0.00001263
  31         0.00000727
  32        -0.00000000
  33        -0.00000000
  34        -0.00000000
  35        -0.00030315
  36         0.00017457
  37         0.00000000
  38        -0.00000000
  39        -0.00000000
  40        -0.00000649
  41         0.00000374
  42         0.00000000
  43         0.00000000
  44         0.00000000
  45         0.00000000
  46         0.00000000
  47        -0.00000000
  48        -0.00000000
  49        -0.00000000
  50         0.00000000
  51        -0.00000000
  52         0.61847812
  53        -0.35616510
  54         0.00000027
  55         0.01351875
  56        -0.00778509
  57         0.00000001
  58        -0.00279154
  59         0.00160757
  60        -0.00000000
  61         0.00100762
  62        -0.00058025
  63         0.00000000
  64         0.00000000
  65         0.00001438
  66        -0.00000828
  67         0.00000000
  68         0.00000000
  69         0.00000000
  70        -0.00000646
  71         0.00000372
  72         0.00000000
  73        -0.00000000
  74        -0.00000000
  75        -0.00001320
  76         0.00000760
  77        -0.00000000
  78        -0.00000000
  79         0.00000000
  80        -0.00030024
  81         0.00017288
  82        -0.00000000
  83         0.00000000
  84        -0.00000000
  85         0.00000639
  86        -0.00000368
  87        -0.00000000
  88         0.00000000
  89        -0.00000000
  90         0.00000000
Sym=     8a  
Ene=   -22.1380
Spin= Alpha
Occup=    2.00000
   1         0.00000000
   2        -0.00000000
   3        -0.00000000
   4         0.00000000
   5        -0.00000000
   6        -0.00000000
   7        -0.34399272
   8        -0.59733827
   9        -0.00000047
  10        -0.00752007
  11        -0.01305849
  12        -0.00000001
  13         0.00155562
  14         0.00270132
  15         0.00000000
  16        -0.00056687
  17        -0.00098438
  18        -0.00000000
  19        -0.00000000
  20         0.00000794
  21         0.00001378
  22         0.00000000
  23         0.00000000
  24         0.00000000
  25        -0.00000408
  26        -0.00000709
  27        -0.00000000
  28        -0.00000000
  29        -0.00000000
  30        -0.00000727
  31        -0.00001263
  32        -0.00000000
  33         0.00000000
  34        -0.00000000
  35        -0.00017456
  36        -0.00030315
  37         0.00000000
  38         0.00000000
  39         0.00000000
  40        -0.00000374
  41        -0.00000649
  42         0.00000000
  43        -0.00000000
  44        -0.00000000
  45        -0.00000000
  46        -0.00000000
  47         0.00000000
  48         0.00000000
  49        -0.00000000
  50         0.00000000
  51         0.00000000
  52         0.35610015
  53         0.61844547
  54        -0.00000062
  55         0.00778368
  56         0.01351804
  57        -0.00000001
  58        -0.00160729
  59        -0.00279140
  60         0.00000000
  61         0.00058018
  62         0.00100759
  63        -0.00000000
  64         0.00000000
  65         0.00000828
  66         0.00001438
  67        -0.00000000
  68        -0.00000000
  69        -0.00000000
  70        -0.00000372
  71        -0.00000646
  72         0.00000000
  73         0.00000000
  74         0.00000000
  75        -0.00000760
  76        -0.00001320
  77        -0.00000000
  78        -0.00000000
  79         0.00000000
  80        -0.00017289
  81        -0.00030024
  82        -0.00000000
  83        -0.00000000
  84         0.00000000
  85         0.00000368
  86         0.00000639
  87         0.00000000
  88        -0.00000000
  89         0.00000000
  90        -0.00000000
Sym=     9a  
Ene=   -22.1380
Spin= Alpha
Occup=    2.00000
   1        -0.00000000
   2         0.00000000
   3         0.00000000
   4        -0.00000000
   5         0.00000000
   6         0.00000000
   7         0.62118145
   8        -0.35145282
   9         0.00000032
  10         0.01352542
  11        -0.00765243
  12         0.00000001
  13        -0.00265371
  14         0.00150143
  15        -0.00000000
  16         0.00068878
  17        -0.00038971
  18         0.00000000
  19        -0.00000000
  20        -0.00001761
  21         0.00000996
  22        -0.00000000
  23         0.00000000
  24        -0.00000000
  25        -0.00001787
  26         0.00001011
  27         0.00000000
  28         0.00000000
  29         0.00000000
  30         0.00001656
  31        -0.00000937
  32        -0.00000000
  33        -0.00000000
  34        -0.00000000
  35        -0.00007878
  36         0.00004456
  37         0.00000000
  38        -0.00000000
  39        -0.00000000
  40        -0.00000288
  41         0.00000163
  42        -0.00000000
  43        -0.00000000
  44         0.00000000
  45         0.00000000
  46         0.00000000
  47        -0.00000000
  48        -0.00000000
  49         0.00000000
  50        -0.00000000
  51        -0.00000000
  52         0.59991652
  53        -0.33937460
  54         0.00000026
  55         0.01306057
  56        -0.00738840
  57         0.00000001
  58        -0.00255764
  59         0.00144686
  60        -0.00000000
  61         0.00065394
  62        -0.00036992
  63         0.00000000
  64        -0.00000000
  65         0.00001712
  66        -0.00000968
  67        -0.00000000
  68         0.00000000
  69        -0.00000000
  70         0.00001811
  71        -0.00001025
  72        -0.00000000
  73        -0.00000000
  74        -0.00000000
  75        -0.00001611
  76         0.00000911
  77         0.00000000
  78         0.00000000
  79        -0.00000000
  80         0.00008933
  81        -0.00005055
  82         0.00000000
  83        -0.00000000
  84         0.00000000
  85        -0.00000310
  86         0.00000176
  87         0.00000000
  88        -0.00000000
  89        -0.00000000
  90         0.00000000
Sym=    10a  
Ene=   -22.1380
Spin= Alpha
Occup=    2.00000
   1        -0.00000000
   2         0.00000000
   3         0.00000000
   4         0.00000000
   5        -0.00000000
   6        -0.00000000
   7         0.35138763
   8         0.62114930
   9         0.00000048
  10         0.00765100
  11         0.01352471
  12         0.00000001
  13        -0.00150113
  14        -0.00265357
  15        -0.00000000
  16         0.00038961
  17         0.00068873
  18         0.00000000
  19         0.00000000
  20        -0.00000996
  21        -0.00001761
  22         0.00000000
  23        -0.00000000
  24        -0.00000000
  25        -0.00001011
  26        -0.00001787
  27        -0.00000000
  28        -0.00000000
  29        -0.00000000
  30         0.00000937
  31         0.00001656
  32         0.00000000
  33         0.00000000
  34         0.00000000
  35        -0.00004459
  36        -0.00007880
  37         0.00000000
  38        -0.00000000
  39         0.00000000
  40        -0.00000163
  41        -0.00000288
  42         0.00000000
  43        -0.00000000
  44         0.00000000
  45         0.00000000
  46        -0.00000000
  47         0.00000000
  48         0.00000000
  49        -0.00000000
  50        -0.00000000
  51         0.00000000
  52         0.33944211
  53         0.59994980
  54        -0.00000060
  55         0.00738988
  56         0.01306130
  57        -0.00000001
  58        -0.00144716
  59        -0.00255779
  60         0.00000000
  61         0.00037003
  62         0.00065400
  63        -0.00000000
  64         0.00000000
  65         0.00000968
  66         0.00001712
  67        -0.00000000
  68        -0.00000000
  69        -0.00000000
  70         0.00001024
  71         0.00001811
  72        -0.00000000
  73         0.00000000
  74         0.00000000
  75        -0.00000912
  76        -0.00001611
  77         0.00000000
  78         0.00000000
  79         0.00000000
  80         0.00005052
  81         0.00008932
  82        -0.00000000
  83         0.00000000
  84        -0.00000000
  85        -0.00000175
  86        -0.00000310
  87        -0.00000000
  88        -0.00000000
  89        -0.00000000
  90        -0.00000000
Sym=    11a  
Ene=    -3.2835
Spin= Alpha
Occup=    2.00000
   1         0.07915714
   2        -0.31369313
   3         0.44885580
   4         0.33103713
   5         0.01031994
   6        -0.00332871
   7         0.00000000
   8         0.00000000
   9         0.00041458
  10        -0.00000000
  11        -0.00000000
  12        -0.00079294
  13        -0.00000000
  14        -0.00000000
  15        -0.00099369
  16         0.00000000
  17        -0.00000000
  18        -0.00007956
  19         0.00014995
  20        -0.00000000
  21         0.00000000
  22         0.00000000
  23        -0.00000000
  24        -0.00015907
  25        -0.00000000
  26         0.00000000
  27         0.00000000
  28        -0.00000000
  29         0.00042915
  30        -0.00000000
  31        -0.00000000
  32         0.00000000
  33        -0.00000000
  34        -0.00048286
  35         0.00000000
  36         0.00000000
  37         0.00000000
  38         0.00000000
  39         0.00000964
  40         0.00000000
  41        -0.00000000
  42         0.00000000
  43         0.00000000
  44         0.00000000
  45        -0.00000000
  46         0.07916451
  47        -0.31372235
  48         0.44889763
  49         0.33106792
  50         0.01032106
  51        -0.00332906
  52        -0.00000000
  53        -0.00000000
  54        -0.00041462
  55         0.00000000
  56         0.00000000
  57         0.00079303
  58         0.00000000
  59         0.00000000
  60         0.00099382
  61         0.00000000
  62        -0.00000000
  63         0.00007937
  64         0.00014996
  65         0.00000000
  66         0.00000000
  67         0.00000000
  68        -0.00000000
  69        -0.00015907
  70        -0.00000000
  71         0.00000000
  72         0.00000000
  73         0.00000000
  74         0.00042922
  75        -0.00000000
  76         0.00000000
  77         0.00000000
  78         0.00000000
  79        -0.00048281
  80         0.00000000
  81        -0.00000000
  82         0.00000000
  83        -0.00000000
  84        -0.00000964
  85         0.00000000
  86         0.00000000
  87        -0.00000000
  88        -0.00000000
  89        -0.00000000
  90         0.00000000
Sym=    12a  
Ene=    -3.2833
Spin= Alpha
Occup=    2.00000
   1         0.07918392
   2        -0.31372045
   3         0.44916844
   4         0.33051138
   5         0.01199853
   6        -0.00380392
   7         0.00000000
   8         0.00000000
   9         0.00049059
  10        -0.00000000
  11        -0.00000000
  12        -0.00091570
  13        -0.00000000
  14        -0.00000000
  15        -0.00139233
  16         0.00000000
  17        -0.00000000
  18         0.00199419
  19         0.00009399
  20        -0.00000000
  21         0.00000000
  22         0.00000000
  23        -0.00000000
  24        -0.00004865
  25         0.00000000
  26         0.00000000
  27         0.00000000
  28        -0.00000000
  29         0.00076078
  30        -0.00000000
  31        -0.00000000
  32         0.00000000
  33        -0.00000000
  34         0.00050832
  35         0.00000000
  36        -0.00000000
  37         0.00000000
  38        -0.00000000
  39         0.00002511
  40         0.00000000
  41        -0.00000000
  42        -0.00000000
  43         0.00000000
  44         0.00000000
  45        -0.00000000
  46        -0.07917655
  47         0.31369122
  48        -0.44912662
  49        -0.33048054
  50        -0.01199757
  51         0.00380361
  52         0.00000000
  53         0.00000000
  54         0.00049055
  55        -0.00000000
  56        -0.00000000
  57        -0.00091563
  58        -0.00000000
  59        -0.00000000
  60        -0.00139224
  61        -0.00000000
  62         0.00000000
  63         0.00199420
  64        -0.00009397
  65        -0.00000000
  66        -0.00000000
  67        -0.00000000
  68         0.00000000
  69         0.00004863
  70        -0.00000000
  71        -0.00000000
  72        -0.00000000
  73        -0.00000000
  74        -0.00076074
  75        -0.00000000
  76        -0.00000000
  77        -0.00000000
  78         0.00000000
  79        -0.00050837
  80         0.00000000
  81         0.00000000
  82         0.00000000
  83         0.00000000
  84         0.00002510
  85        -0.00000000
  86        -0.00000000
  87        -0.00000000
  88        -0.00000000
  89         0.00000000
  90        -0.00000000
Sym=    13a  
Ene=    -2.0510
Spin= Alpha
Occup=    2.00000
   1        -0.00013758
   2         0.00023149
   3        -0.00143959
   4         0.00149853
   5        -0.00177172
   6         0.00005193
   7        -0.00000002