HF file generated by AutoMR of MOKIT
Stability RHF                                                         Gen
Number of atoms                            I                2
Info1-9                                    I   N=           9
           6           5           0           0           0         110
           7           1           2
Charge                                     I                0
Multiplicity                               I                1
Number of electrons                        I               48
Number of alpha electrons                  I               24
Number of beta electrons                   I               24
Number of basis functions                  I               90
Number of independent functions            I               90
Number of point charges in /Mol/           I                0
Number of translation vectors              I                0
Atomic numbers                             I   N=           2
          24          24
Nuclear charges                            R   N=           2
  2.40000000E+01  2.40000000E+01
Current cartesian coordinates              R   N=           6
  0.00000000E+00  0.00000000E+00  0.00000000E+00  0.00000000E+00  0.00000000E+00
  5.66917840E+00
Force Field                                I                0
Int Atom Types                             I   N=           2
           0           0
MM charges                                 R   N=           2
  0.00000000E+00  0.00000000E+00
Integer atomic weights                     I   N=           2
          52          52
Real atomic weights                        R   N=           2
  5.19405097E+01  5.19405097E+01
Atom fragment info                         I   N=           2
           1           2
Atom residue num                           I   N=           2
           0           0
Nuclear spins                              I   N=           2
           0           0
Nuclear ZEff                               R   N=           2
 -2.47200000E+01 -2.47200000E+01
Nuclear QMom                               R   N=           2
  0.00000000E+00  0.00000000E+00
Nuclear GFac                               R   N=           2
  0.00000000E+00  0.00000000E+00
MicOpt                                     I   N=           2
          -1          -1
Number of contracted shells                I               30
Number of primitive shells                 I               72
Pure/Cartesian d shells                    I                0
Pure/Cartesian f shells                    I                0
Highest angular momentum                   I                3
Largest degree of contraction              I                8
Shell types                                I   N=          30
           0           0           0           0           0           0
           1           1           1          -2          -2          -2
           1          -2          -3           0           0           0
           0           0           0           1           1           1
          -2          -2          -2           1          -2          -3
Number of primitives per shell             I   N=          30
           8           4           2           1           1           1
           6           3           1           4           1           1
           1           1           1           8           4           2
           1           1           1           6           3           1
           4           1           1           1           1           1
Shell to atom map                          I   N=          30
           1           1           1           1           1           1
           1           1           1           1           1           1
           1           1           1           2           2           2
           2           2           2           2           2           2
           2           2           2           2           2           2
Primitive exponents                        R   N=          72
  2.54477807E+05  3.81317971E+04  8.67529306E+03  2.45500998E+03  7.99162178E+02
  2.86900215E+02  1.11254132E+02  4.38641526E+01  2.79326692E+02  8.62747324E+01
  1.35557561E+01  5.69781128E+00  8.56365826E+00  1.39882968E+00  5.72881711E-01
  9.00961713E-02  3.41258851E-02  1.30643989E+03  3.09253114E+02  9.89962740E+01
  3.67569165E+01  1.45666571E+01  5.87399374E+00  2.28909997E+01  3.08550018E+00
  1.21323291E+00  4.49316807E-01  4.37200745E+01  1.23912427E+01  4.26394420E+00
  1.55252218E+00  5.37619295E-01  1.64931731E-01  1.20675000E-01  5.10000000E-02
  1.14700000E+00  2.54477807E+05  3.81317971E+04  8.67529306E+03  2.45500998E+03
  7.99162178E+02  2.86900215E+02  1.11254132E+02  4.38641526E+01  2.79326692E+02
  8.62747324E+01  1.35557561E+01  5.69781128E+00  8.56365826E+00  1.39882968E+00
  5.72881711E-01  9.00961713E-02  3.41258851E-02  1.30643989E+03  3.09253114E+02
  9.89962740E+01  3.67569165E+01  1.45666571E+01  5.87399374E+00  2.28909997E+01
  3.08550018E+00  1.21323291E+00  4.49316807E-01  4.37200745E+01  1.23912427E+01
  4.26394420E+00  1.55252218E+00  5.37619295E-01  1.64931731E-01  1.20675000E-01
  5.10000000E-02  1.14700000E+00
Contraction coefficients                   R   N=          72
  2.42904776E-04  1.88435236E-03  9.80095844E-03  3.98250087E-02  1.29405437E-01
  3.06290018E-01  4.34628350E-01  2.24695629E-01 -2.43633579E-02 -1.15114954E-01
  5.50922663E-01  5.36113547E-01 -3.71230177E-01  1.16811695E+00  1.00000000E+00
  1.00000000E+00  1.00000000E+00  2.82928007E-03  2.27766292E-02  1.05645619E-01
  2.99499449E-01  4.77062454E-01  2.76542344E-01 -1.94121061E-02  3.86188758E-01
  6.76239089E-01  1.00000000E+00  2.20932593E-02  1.28014388E-01  3.86529103E-01
  6.41033014E-01  1.00000000E+00  1.00000000E+00  1.00000000E+00  1.00000000E+00
  1.00000000E+00  2.42904776E-04  1.88435236E-03  9.80095844E-03  3.98250087E-02
  1.29405437E-01  3.06290018E-01  4.34628350E-01  2.24695629E-01 -2.43633579E-02
 -1.15114954E-01  5.50922663E-01  5.36113547E-01 -3.71230177E-01  1.16811695E+00
  1.00000000E+00  1.00000000E+00  1.00000000E+00  2.82928007E-03  2.27766292E-02
  1.05645619E-01  2.99499449E-01  4.77062454E-01  2.76542344E-01 -1.94121061E-02
  3.86188758E-01  6.76239089E-01  1.00000000E+00  2.20932593E-02  1.28014388E-01
  3.86529103E-01  6.41033014E-01  1.00000000E+00  1.00000000E+00  1.00000000E+00
  1.00000000E+00  1.00000000E+00
Coordinates of each shell                  R   N=          90
  0.00000000E+00  0.00000000E+00  0.00000000E+00  0.00000000E+00  0.00000000E+00
  0.00000000E+00  0.00000000E+00  0.00000000E+00  0.00000000E+00  0.00000000E+00
  0.00000000E+00  0.00000000E+00  0.00000000E+00  0.00000000E+00  0.00000000E+00
  0.00000000E+00  0.00000000E+00  0.00000000E+00  0.00000000E+00  0.00000000E+00
  0.00000000E+00  0.00000000E+00  0.00000000E+00  0.00000000E+00  0.00000000E+00
  0.00000000E+00  0.00000000E+00  0.00000000E+00  0.00000000E+00  0.00000000E+00
  0.00000000E+00  0.00000000E+00  0.00000000E+00  0.00000000E+00  0.00000000E+00
  0.00000000E+00  0.00000000E+00  0.00000000E+00  0.00000000E+00  0.00000000E+00
  0.00000000E+00  0.00000000E+00  0.00000000E+00  0.00000000E+00  0.00000000E+00
  0.00000000E+00  0.00000000E+00  5.66917840E+00  0.00000000E+00  0.00000000E+00
  5.66917840E+00  0.00000000E+00  0.00000000E+00  5.66917840E+00  0.00000000E+00
  0.00000000E+00  5.66917840E+00  0.00000000E+00  0.00000000E+00  5.66917840E+00
  0.00000000E+00  0.00000000E+00  5.66917840E+00  0.00000000E+00  0.00000000E+00
  5.66917840E+00  0.00000000E+00  0.00000000E+00  5.66917840E+00  0.00000000E+00
  0.00000000E+00  5.66917840E+00  0.00000000E+00  0.00000000E+00  5.66917840E+00
  0.00000000E+00  0.00000000E+00  5.66917840E+00  0.00000000E+00  0.00000000E+00
  5.66917840E+00  0.00000000E+00  0.00000000E+00  5.66917840E+00  0.00000000E+00
  0.00000000E+00  5.66917840E+00  0.00000000E+00  0.00000000E+00  5.66917840E+00
Constraint Structure                       R   N=           6
  0.00000000E+00  0.00000000E+00  0.00000000E+00  0.00000000E+00  0.00000000E+00
  5.66917840E+00
Num ILSW                                   I              100
ILSW                                       I   N=         100
           0           0           0           0           2           1
           0           0           0           0           0          -1
           0           0           0           0           0           0
           0           0           0           0           0           0
           1           1           0           0           0           0
           0           0      100000           0          -1           0
           0           0           0           0           0           0
           0           0           0           1           0           0
           0           0           1           0           0           0
           0           0           4          40           0           0
           0           0           0           0           0           0
           0           0           0           0           0           0
           0           0           0           0           0           0
           0           0           0           0           0           0
           0           0           0           0           0           0
           0           0           0           0           0           0
           0           0           0           0
Num RLSW                                   I               40
RLSW                                       R   N=          40
  1.00000000E+00  1.00000000E+00  1.00000000E+00  1.00000000E+00  1.00000000E+00
  0.00000000E+00  0.00000000E+00  1.00000000E+00  0.00000000E+00  0.00000000E+00
  0.00000000E+00  0.00000000E+00  1.00000000E+00  0.00000000E+00  0.00000000E+00
  0.00000000E+00  0.00000000E+00  1.00000000E+00  0.00000000E+00  0.00000000E+00
  0.00000000E+00  0.00000000E+00  1.00000000E+00  0.00000000E+00  0.00000000E+00
  0.00000000E+00  0.00000000E+00  1.00000000E+00  0.00000000E+00  0.00000000E+00
  0.00000000E+00  0.00000000E+00  1.00000000E+00  0.00000000E+00  0.00000000E+00
  0.00000000E+00  0.00000000E+00  0.00000000E+00  1.00000000E+00  1.00000000E+00
ECP-MxAtEC                                 I           250000
ECP-MaxLECP                                I               10
ECP-MaxAtL                                 I          2250000
ECP-MxTECP                                 I         11250000
ECP-LenNCZ                                 I                0
ECP-KFirst                                 I   N=          20
           0           0           0           0           0           0
           0           0           0           0           0           0
           0           0           0           0           0           0
           0           0
ECP-KLast                                  I   N=          20
           0           0           0           0           0           0
           0           0           0           0           0           0
           0           0           0           0           0           0
           0           0
ECP-LMax                                   I   N=           2
           0           0
ECP-LPSkip                                 I   N=           2
           1           1
ECP-RNFroz                                 R   N=           2
  0.00000000E+00  0.00000000E+00
ECP-NLP                                    I                0
ECP-CLP1                                   R      0.000000000000000E+00
ECP-CLP2                                   R      0.000000000000000E+00
ECP-ZLP                                    R      0.000000000000000E+00
MxBond                                     I                1
NBond                                      I   N=           2
           0           0
IBond                                      I   N=           2
           0           0
RBond                                      R   N=           2
  0.00000000E+00  0.00000000E+00
Virial Ratio                               R      2.000014116054456E+00
SCF Energy                                 R     -2.086669893077688E+03
Total Energy                               R     -2.086669893077688E+03
S**2                                       R      5.674569458496531E+00
S**2 after annihilation                    R      1.770799823535780E+01
RMS Density                                R      1.813221425799566E-09
External E-field                           R   N=          35
  0.00000000E+00  0.00000000E+00  0.00000000E+00  0.00000000E+00  0.00000000E+00
  0.00000000E+00  0.00000000E+00  0.00000000E+00  0.00000000E+00  0.00000000E+00
  0.00000000E+00  0.00000000E+00  0.00000000E+00  0.00000000E+00  0.00000000E+00
  0.00000000E+00  0.00000000E+00  0.00000000E+00  0.00000000E+00  0.00000000E+00
  0.00000000E+00  0.00000000E+00  0.00000000E+00  0.00000000E+00  0.00000000E+00
  0.00000000E+00  0.00000000E+00  0.00000000E+00  0.00000000E+00  0.00000000E+00
  0.00000000E+00  0.00000000E+00  0.00000000E+00  0.00000000E+00  0.00000000E+00
IOpCl                                      I                0
IROHF                                      I                0
Alpha Orbital Energies                     R   N=          90
  2.00000000E+00  2.00000000E+00  1.99999999E+00  1.99999996E+00  1.99999961E+00
  1.99999913E+00  1.99999902E+00  1.99999899E+00  1.99999880E+00  1.99999880E+00
  1.99999869E+00  1.99999869E+00  1.99999606E+00  1.99999499E+00  1.99999495E+00
  1.99999495E+00  1.99999405E+00  1.99999405E+00  1.56216014E+00  1.05645646E+00
  1.05480820E+00  1.05480820E+00  1.01203924E+00  1.01203924E+00  9.87960758E-01
  9.87960758E-01  9.45191799E-01  9.45191799E-01  9.43543537E-01  4.37839857E-01
  0.00000000E+00  0.00000000E+00  0.00000000E+00  0.00000000E+00  0.00000000E+00
  0.00000000E+00  0.00000000E+00  0.00000000E+00  0.00000000E+00  0.00000000E+00
  0.00000000E+00  0.00000000E+00  0.00000000E+00  0.00000000E+00  0.00000000E+00
  0.00000000E+00  0.00000000E+00  0.00000000E+00  0.00000000E+00  0.00000000E+00
  0.00000000E+00  0.00000000E+00  0.00000000E+00  0.00000000E+00  0.00000000E+00
  0.00000000E+00  0.00000000E+00  0.00000000E+00  0.00000000E+00  0.00000000E+00
  0.00000000E+00  0.00000000E+00  0.00000000E+00  0.00000000E+00  0.00000000E+00
  0.00000000E+00  0.00000000E+00  0.00000000E+00  0.00000000E+00  0.00000000E+00
  0.00000000E+00  0.00000000E+00  0.00000000E+00  0.00000000E+00  0.00000000E+00
  0.00000000E+00  0.00000000E+00  0.00000000E+00  0.00000000E+00  0.00000000E+00
  0.00000000E+00  0.00000000E+00  0.00000000E+00  0.00000000E+00  0.00000000E+00
  0.00000000E+00  0.00000000E+00  0.00000000E+00  0.00000000E+00  0.00000000E+00
Alpha MO coefficients                      R   N=        8100
  9.98273062E-01  5.40485475E-03 -2.09414906E-03  1.73908324E-03 -5.93334191E-04
  2.12575028E-04 -4.53829109E-12 -6.96882272E-12  2.76819606E-05  2.70000740E-12
  8.28157275E-12 -2.62688183E-05  8.69417297E-13  2.56280267E-12  4.96934666E-05
 -7.38125944E-06 -2.42547114E-15 -1.51508118E-15  1.03397579E-18  8.20478894E-18
  3.11977775E-05 -3.13787537E-15 -5.79084945E-15  5.23375420E-19  5.58205366E-18
 -1.06296206E-04 -2.01940019E-15  5.09215456E-15  3.98356557E-19  3.10632254E-18
  1.45733079E-14  9.25295540E-14 -1.63537690E-04  3.73178011E-06 -8.72556317E-15
  8.94278294E-15  1.63604380E-20  2.98641159E-19 -4.38942715E-06 -1.44215408E-16
  1.29432752E-15  2.31644102E-20  1.39458561E-20  3.65346390E-20 -1.99407497E-20
  6.40929113E-04  1.95613481E-05 -1.00545396E-05 -1.18045450E-04  1.36994299E-04
 -9.89574281E-06  2.21009070E-11 -4.42981827E-11 -4.84320804E-05 -3.15063300E-12
  1.10894907E-11  1.31711700E-05 -1.17297619E-12  3.80845404E-12  6.42435293E-05
  1.95027275E-06 -2.23436156E-15  7.11761404E-15  6.93052668E-20  1.34065747E-20
 -1.48620175E-05 -3.18484443E-15  1.05191285E-14 -2.23447342E-20  8.87482148E-21
  9.42687290E-05 -7.16472708E-16 -2.82277352E-15  5.07022932E-21  1.21367483E-20
  5.48316205E-15  3.20821596E-14 -1.88003800E-04  3.69977806E-05 -7.66073956E-15
  2.11675114E-16  2.76628620E-21  8.04782807E-21 -6.22005542E-06 -2.45780969E-16
  1.63948160E-15  3.80980269E-22 -2.06761278E-21 -2.65175275E-22 -8.53469263E-22
  6.39953560E-04 -1.26267921E-05  7.36554822E-06  1.20285796E-04 -1.37782197E-04
  1.02104767E-05  3.73562468E-11  1.19126524E-11 -4.83984161E-05 -1.51643363E-11
  1.48468838E-12  1.31397591E-05 -5.01700464E-12  2.93248425E-13  6.42999152E-05
 -1.96162526E-06  7.66782513E-15 -8.18722144E-16 -9.57999126E-18  9.60244391E-18
  1.49130181E-05  1.35753921E-14 -1.30175343E-15 -6.39167662E-18  6.41273349E-18
 -9.44172882E-05  1.04861812E-15  3.97338017E-16 -3.61837026E-18  3.63597543E-18
 -1.04434962E-13  3.30749432E-14 -1.88194578E-04 -3.69932277E-05  1.45733066E-14
  2.23119246E-15 -3.30710668E-19  3.30405325E-19 -6.24400776E-06 -9.41610770E-16
  1.20678754E-16  1.13234929E-20 -1.00958358E-20  2.01632803E-21 -1.97072871E-21
 -9.98273061E-01 -5.40482890E-03  2.09416026E-03 -1.73928498E-03  5.93611729E-04
 -2.12690095E-04  2.79449696E-12 -2.06491729E-13  2.76216213E-05 -2.14198854E-12
  9.86973105E-14 -2.62532575E-05 -6.71676603E-13  3.39451934E-14  4.97766223E-05
  7.42898104E-06 -8.77227915E-16 -7.50463624E-17  3.58291971E-19 -2.56606197E-19
 -3.12488732E-05 -1.41937997E-15  3.06940564E-16 -1.81572729E-19  1.72487616E-19
  1.06386654E-04  4.30694750E-15 -3.98302832E-16  4.78870193E-20 -6.12313558E-20
 -3.42722961E-14 -2.82217050E-15 -1.63776854E-04 -3.65946969E-06  2.54461539E-14
  4.00587855E-15 -3.35730452E-20  3.85830507E-20 -4.45206681E-06 -1.10907380E-15
 -6.95975697E-17  9.26091010E-21 -3.17212660E-21  5.75266515E-22  1.83764949E-21
 -3.94853594E-02  1.81545328E-01 -4.46310698E-01 -3.24369025E-01 -1.20648106E-02
  3.82735448E-03  3.88417036E-12  4.54398427E-11 -7.27277653E-03 -1.02123884E-11
  1.53304610E-12 -7.97803712E-03 -3.11067944E-12 -1.14827222E-13 -1.35067518E-03
 -1.11876220E-04  5.79395769E-15 -2.65385183E-15 -5.88405152E-17 -7.63374497E-17
  8.28274936E-05  9.75807254E-15 -2.09860936E-15 -1.06582139E-16 -4.41709556E-17
 -8.18368082E-04  9.45025133E-16 -1.96789915E-15 -7.54723309E-17 -2.70211159E-17
 -9.57802986E-14  7.37168459E-14 -2.18726674E-03 -5.57288796E-04  1.06693920E-14
  2.68865256E-15 -6.26073125E-18 -2.22464989E-18 -1.61975853E-05 -3.96463854E-16
 -2.08825487E-16 -1.09543204E-18  6.55277049E-18 -7.04400711E-18  7.01036071E-18
  3.94865754E-02 -1.81537097E-01  4.46343960E-01  3.24284152E-01  1.23087650E-02
 -3.98974065E-03 -2.00848561E-11  2.12174606E-11 -7.27362242E-03  4.28859682E-13
 -6.80141703E-12 -7.97190764E-03  3.21645643E-13 -2.27467386E-12 -1.37623955E-03
  6.38931036E-05  8.03294994E-16 -4.89410396E-15 -6.41433969E-16 -3.63566804E-17
 -5.02200023E-05  5.71459925E-16 -5.67242717E-15  2.19816250E-16 -4.86761324E-18
  8.49692997E-04  3.08077493E-15  1.17184463E-16 -5.33896749E-17 -5.78337449E-19
 -2.44625181E-14 -3.49943912E-14 -2.14630356E-03  4.70116604E-04  1.16786655E-14
  1.32832436E-14  1.76760317E-17 -8.84734898E-19 -4.88327034E-05 -2.64852563E-16
 -1.20235896E-15 -8.99795307E-18 -3.43312203E-19  1.19498486E-19  8.38494995E-18
  3.00781790E-02 -1.49411970E-01  4.42762545E-01  3.21758730E-01  1.01284878E-02
 -3.33421991E-03 -5.50607793E-11 -1.10256639E-10  3.57571719E-02  1.84474031E-11
  1.50703644E-11  6.16180453E-03  6.23962826E-12  5.90924905E-12  9.79489785E-04
  1.63243489E-04 -1.56729582E-14 -4.30573480E-15 -5.52179833E-17 -5.55211376E-17
 -1.35454282E-04 -2.02430132E-14 -1.21082963E-14  2.69600570E-17 -2.85653324E-17
  2.35425660E-04 -1.40095158E-14  2.79035541E-15  3.56603137E-17 -1.04210607E-17
  7.71601716E-14  1.30884289E-14 -2.71634016E-04 -5.19974797E-04 -5.05796288E-14
 -1.77324368E-14 -6.08042529E-18 -2.46452814E-18 -1.72928292E-06 -6.66552936E-16
  1.58239923E-15 -1.37493806E-17 -1.02412254E-17  1.23243466E-18 -5.82129797E-19
  3.00808919E-02 -1.49389092E-01  4.42844512E-01  3.21516118E-01  1.06705417E-02
 -3.42119066E-03  8.92517733E-11 -4.35959604E-11 -3.57548019E-02 -2.13322976E-11
  1.47910652E-11 -6.18428697E-03 -7.38588294E-12  4.91648648E-12 -8.42530638E-04
  1.12748003E-04 -1.50676365E-14  9.90791844E-15 -6.38188270E-16 -3.58640719E-17
 -2.01872520E-04 -2.13076994E-14  1.20905836E-14  2.19213209E-16 -5.42432899E-18
  6.32536523E-04 -3.89636590E-15 -5.15691139E-15 -5.51790506E-17 -9.98913782E-19
 -8.22125555E-15  9.60053565E-14 -2.53502192E-04 -4.74089230E-04 -5.40095794E-14
 -4.70517561E-14  2.13309044E-17  1.19572216E-18 -2.80850269E-05 -1.35899411E-15
  3.41269030E-15 -8.67143077E-18 -2.63316396E-19 -2.65086303E-19  8.77220672E-18
 -1.02644123E-01  3.46243016E-01 -1.76358413E-02 -2.52223175E-02  1.76882693E-03
 -5.74914226E-04  8.62325727E-11  2.99672875E-10 -6.31778408E-01 -1.57773256E-11
 -6.60315178E-11  3.30373367E-01 -5.81576834E-12 -2.35992807E-11  1.07523363E-01
 -3.03306266E-04  5.27995298E-15  3.76994639E-14 -9.87510520E-17 -4.72764341E-17
  2.43745222E-04  1.27220195E-14  6.24259399E-14 -7.02765703E-17  1.23489011E-17
  2.33405587E-04 -2.21871775E-15  1.74487535E-14 -1.92180825E-17  2.89035392E-17
 -5.45212030E-14 -2.26293430E-13  2.77641991E-03 -4.65890393E-04  1.25193515E-14
  1.20147872E-13 -6.87954237E-18  7.20299606E-19  8.18765493E-05 -1.62998899E-15
 -2.57281881E-15 -4.63127181E-17 -9.91218704E-18 -1.32236623E-17  2.19199364E-17
 -1.02680082E-01  3.46190874E-01 -1.82541037E-02 -2.42871301E-02  9.45791384E-04
 -6.88385631E-06  4.70376785E-11 -6.66887733E-11  6.31836324E-01 -1.19124967E-11
  5.41026519E-12 -3.30558024E-01 -4.06957788E-12  2.35198377E-12 -1.07492183E-01
 -2.59396952E-04 -7.60880110E-15  5.45980480E-15  7.21101966E-19  8.10128762E-18
 -2.58733207E-05 -9.99500877E-15  1.04328426E-14  1.31791380E-17  1.67325544E-18
  3.69528082E-04  4.95011842E-15  1.83972181E-14 -1.12938859E-17 -1.11460373E-18
 -6.83322681E-14 -1.85263496E-13 -2.27021316E-03 -2.93327488E-04  3.77510809E-14
  1.82970628E-13  4.48504649E-18  1.76425073E-19 -1.47527547E-04 -2.82050014E-15
 -4.52077951E-15  6.62547696E-18  3.14557876E-18  2.25198633E-18  1.17820867E-18
 -2.27117434E-01  7.67185091E-01 -5.36243461E-02 -6.48253607E-02  9.12368512E-04
  1.45238591E-04  1.14292583E-11  1.73838463E-11  1.17280738E-01  5.95109596E-12
  1.65706776E-11 -3.95041033E-02  1.64328370E-12  4.72050268E-12 -1.35959064E-02
  7.50027607E-05 -5.72636993E-15  6.85157743E-16 -4.87502377E-17  6.35005097E-18
 -1.05189551E-04 -6.76486678E-15 -9.21453219E-15 -5.17069173E-17  4.31869712E-18
  6.35298774E-04 -4.67490408E-15  1.84809896E-14 -3.10248566E-17  3.80533633E-19
  6.41141812E-14  2.53747922E-13  8.67661382E-04  6.98171598E-05 -1.27227695E-14
  4.51767782E-14 -2.66685796E-18  2.50881052E-19  3.51941783E-05 -3.06244929E-16
  3.72693017E-15 -4.00428790E-18 -2.03460103E-19 -3.51436627E-18  2.31266001E-18
  2.27257261E-01 -7.67124857E-01  5.57573424E-02  6.23556389E-02 -3.16508343E-04
 -2.09669704E-04  3.96407908E-11 -1.51493928E-10  1.17310273E-01 -9.13773750E-12
  3.58480737E-11 -3.96088409E-02 -3.16987490E-12  1.23985293E-11 -1.35051326E-02
 -5.59645143E-05 -6.53357212E-15  2.33226642E-14 -4.07836759E-17 -9.54829422E-18
  8.08830556E-05 -8.54733876E-15  3.47198866E-14  4.59519389E-18  1.98540146E-18
 -6.03139196E-04 -1.13894392E-15 -6.21525274E-15  5.77557598E-18 -1.08271580E-18
 -1.63034650E-14  7.44176974E-14  9.70369717E-04 -9.63220743E-05 -7.24584831E-15
  2.57744760E-14 -2.55452674E-18  2.09397589E-19  2.30073903E-05 -1.01977158E-15
  4.57396131E-15 -7.71311676E-19  2.77444875E-19  6.65882755E-19  4.15104163E-19
 -2.06733833E-01  7.00845145E-01 -7.29762111E-02 -7.56981874E-02 -8.39194394E-04
  4.94068524E-04  1.22761603E-11  2.80849899E-11  3.35395131E-01 -2.12481584E-11
 -4.24966450E-12 -1.24338687E-01 -6.50193982E-12 -1.64920443E-12 -4.17021193E-02
  1.15288977E-04  2.51129737E-15  1.02996853E-14  2.85143062E-17  2.68275265E-17
 -1.56707142E-04  1.42460200E-14  8.71991270E-15 -2.37784506E-18  2.71744737E-18
  4.65264667E-05 -1.61860681E-14  1.66408293E-14 -8.79950423E-18 -9.57687758E-18
 -2.51961543E-13  4.48575962E-14 -6.67827867E-04  2.12494099E-04 -2.89387608E-14
  5.04512749E-14  9.55759488E-21  6.04544910E-19 -3.38238809E-05 -3.66555072E-15
  2.07608691E-15  2.02433254E-17  5.53783434E-18  3.92505297E-18 -7.95829012E-18
 -2.06875240E-01  7.00778596E-01 -7.51427438E-02 -7.31269874E-02 -1.71087177E-03
  2.46968850E-04  1.24670157E-10 -1.31605024E-10 -3.35491973E-01 -3.42310164E-11
  2.94410249E-11  1.24701583E-01 -1.16468544E-11  1.02567976E-11  4.12253202E-02
  1.05837866E-04 -2.22125004E-14  1.99404341E-14  7.49932563E-17  9.52455665E-18
  6.28369558E-06 -3.24414836E-14  2.87790910E-14 -2.02652792E-17 -2.09140518E-18
 -3.43979245E-04  7.74159859E-15 -1.93890984E-16  7.11850847E-19  1.92604702E-18
 -1.03400556E-13  3.66033455E-14  1.12700787E-03  8.55870237E-05 -5.93107445E-15
  4.05690617E-14 -4.86581657E-19 -8.29700313E-19  7.45052262E-05 -4.82787175E-15
  3.05399065E-15 -2.63659168E-19 -1.13451029E-18 -1.25590495E-18 -1.44150409E-18
 -3.59271354E-02  1.20844288E-01 -4.51421221E-03 -6.79290251E-03 -2.10098620E-03
 -1.18707765E-03  8.82057206E-10  6.18819902E-10 -7.34354774E-01 -2.42697683E-10
 -1.13901810E-10  2.44171144E-01 -8.38614408E-11 -4.19131050E-11  8.31744256E-02
 -4.18362896E-04  9.98685499E-14  2.58275700E-14  1.87959720E-17 -6.34984850E-18
 -7.38025912E-05  2.06382019E-13  8.53799023E-14  1.39057550E-17  2.32214164E-17
 -1.22416115E-03 -1.83925049E-14 -4.16476193E-14  2.08456351E-17  1.59847647E-17
 -1.37461857E-12 -4.65820064E-13 -1.36357960E-03 -4.96515052E-04  1.99857443E-13
  3.59606014E-14  9.31602483E-19  1.67789727E-18 -7.89979584E-05 -2.05730077E-14
 -1.50620279E-14  2.09399517E-17  4.84786400E-18  9.44318231E-18 -5.58157321E-18
  3.59509228E-02 -1.20842106E-01  4.86209453E-03  6.43556099E-03  2.26157746E-03
  9.82743830E-04  3.37480248E-10  4.91092085E-10 -7.34559728E-01 -1.23253688E-10
 -1.35460085E-10  2.44875472E-01 -4.07010619E-11 -4.59552627E-11  8.26406056E-02
  2.46509815E-04 -7.60327404E-14 -8.93519376E-14  2.05648033E-18 -4.57769234E-18
  2.21826431E-04 -1.02014029E-13 -1.18694354E-13 -5.06967028E-18 -1.45794876E-18
  1.14997494E-03  7.49294581E-14  3.90999461E-14  4.57524827E-18 -9.74533952E-19
 -8.95680847E-13 -6.38245230E-13 -1.92488192E-03  3.15749489E-04  4.62934419E-13
  2.37252623E-13 -1.10550595E-18  4.47000231E-19 -1.39532517E-05 -3.12865229E-14
 -2.60577625E-14 -3.31513067E-18 -2.10396545E-18 -1.38857269E-18  2.56002822E-19
 -6.31293616E-11  2.19246594E-10 -1.64424569E-11 -1.87769113E-11 -2.08295236E-12
 -1.21129410E-12 -7.17670155E-01 -2.05226613E-01 -7.77688982E-10  2.02040544E-01
  5.77759796E-02  3.03054368E-10  6.95370578E-02  1.98849774E-02  1.01440392E-10
 -4.82111761E-13 -5.59326310E-05 -1.59946247E-05  1.04611908E-17 -1.10120674E-16
 -6.05784546E-14 -1.55698482E-04 -4.45238972E-05  3.07763386E-16 -5.79835944E-17
 -1.21587867E-12  6.83428413E-05  1.95434752E-05  2.54911337E-17 -2.97657709E-16
  1.32855501E-03  3.79916647E-04 -8.40927711E-13 -5.53863914E-13 -2.28343410E-05
 -6.52976423E-06 -2.86669212E-17 -4.23676309E-17 -7.09719965E-14  2.47848326E-05
  7.08752770E-06 -2.19428322E-16 -6.11167579E-17 -2.96314324E-17  6.50667334E-17
 -1.80287020E-11 -3.31861214E-11 -4.17394698E-12 -2.78409236E-12  2.31925975E-12
  1.01684959E-12 -7.17921432E-01 -2.05298458E-01 -6.70135605E-10  2.02933399E-01
  5.80313003E-02  2.16194970E-10  6.87100805E-02  1.96484922E-02  7.32203547E-11
  2.28263005E-13  1.31010006E-04  3.74639218E-05  4.03989157E-17 -1.33750161E-18
  2.26327711E-13  1.81480628E-04  5.18966165E-05 -1.10561205E-16  3.05600865E-17
  1.22036575E-12 -6.71603425E-05 -1.92053263E-05  3.20168674E-17  1.61222470E-17
  9.19796144E-04  2.63027022E-04 -2.19213182E-12  2.91410890E-13 -2.92144500E-04
 -8.35423171E-05  2.80402151E-17  7.04435023E-18 -3.04199334E-14  3.77689678E-05
  1.08005008E-05  2.71066283E-16 -8.55730308E-20  3.59559688E-17 -3.28127302E-17
 -3.01795662E-11 -1.39380873E-11 -6.00375928E-11 -4.24345911E-11 -2.45563078E-12
 -2.28592270E-13  2.05226602E-01 -7.17670154E-01 -4.72929077E-10 -5.77759770E-02
  2.02040544E-01  2.14360085E-10 -1.98849765E-02  6.95370579E-02  7.07943290E-11
 -3.28518211E-13  1.59946227E-05 -5.59326312E-05 -8.11634842E-17  9.56866384E-17
  3.15026341E-14  4.45238945E-05 -1.55698482E-04  2.79749276E-16 -9.05116908E-17
 -7.13946374E-13 -1.95434769E-05  6.83428412E-05 -1.47516287E-16  6.84848891E-17
 -3.79916640E-04  1.32855501E-03 -6.12150894E-14 -3.22446501E-13  6.52975722E-06
 -2.28343410E-05  1.68119650E-16  8.41416398E-17 -2.72032550E-14 -7.08752775E-06
  2.47848326E-05 -5.47682350E-17 -2.78866257E-18 -4.68702596E-17  1.37151593E-18
  1.21282698E-12 -1.31626709E-12 -2.48339446E-11 -1.83767128E-11  9.54631634E-13
  6.81519594E-13  2.05298468E-01 -7.17921433E-01 -2.63689886E-10 -5.80313026E-02
  2.02933399E-01  6.67388030E-11 -1.96484930E-02  6.87100805E-02  2.32594941E-11
  7.68133775E-14 -3.74639235E-05  1.31010006E-04  2.12531289E-16  1.34806316E-17
  1.22628090E-13 -5.18966189E-05  1.81480628E-04 -1.01715106E-16 -3.10293754E-17
  7.37565088E-13  1.92053257E-05 -6.71603426E-05  9.55778192E-17 -7.74648773E-19
 -2.63027020E-04  9.19796143E-04 -1.64787731E-12  1.91564173E-13  8.35423088E-05
 -2.92144500E-04 -1.12065424E-16 -5.75669360E-17 -4.11527875E-14 -1.08005009E-05
  3.77689678E-05  8.18223771E-17  1.21222989E-17 -1.09414115E-16 -8.34057538E-17
  5.18123037E-11 -2.66609411E-10  4.41387044E-11  4.07350734E-11  3.81452174E-13
 -1.88079320E-14 -4.32082094E-02  7.44373987E-01  1.46754679E-10  9.47205977E-03
 -1.63180901E-01 -1.08019892E-10  3.39317181E-03 -5.84562229E-02 -3.44106087E-11
  1.26742800E-13 -7.71351143E-06  1.32885340E-04  1.17763743E-16 -5.03161181E-17
 -2.68463696E-14 -1.02508707E-05  1.76597956E-04  9.40146082E-18  7.34758357E-17
  8.71782621E-15 -7.04322166E-06  1.21337869E-04 -5.24298392E-17 -9.07294549E-17
  1.91383720E-05 -3.29708160E-04 -8.04321809E-13  1.23020959E-13 -2.84017634E-05