HF file generated by AutoMR of MOKIT
Stability RHF                                                         Gen
Number of atoms                            I                2
Info1-9                                    I   N=           9
           6           5           0           0           0         110
           7           1           2
Charge                                     I                0
Multiplicity                               I                1
Number of electrons                        I               48
Number of alpha electrons                  I               24
Number of beta electrons                   I               24
Number of basis functions                  I               90
Number of independent functions            I               90
Number of point charges in /Mol/           I                0
Number of translation vectors              I                0
Atomic numbers                             I   N=           2
          24          24
Nuclear charges                            R   N=           2
  2.40000000E+01  2.40000000E+01
Current cartesian coordinates              R   N=           6
  0.00000000E+00  0.00000000E+00  0.00000000E+00  0.00000000E+00  0.00000000E+00
  5.66917840E+00
Force Field                                I                0
Int Atom Types                             I   N=           2
           0           0
MM charges                                 R   N=           2
  0.00000000E+00  0.00000000E+00
Integer atomic weights                     I   N=           2
          52          52
Real atomic weights                        R   N=           2
  5.19405097E+01  5.19405097E+01
Atom fragment info                         I   N=           2
           1           2
Atom residue num                           I   N=           2
           0           0
Nuclear spins                              I   N=           2
           0           0
Nuclear ZEff                               R   N=           2
 -2.47200000E+01 -2.47200000E+01
Nuclear QMom                               R   N=           2
  0.00000000E+00  0.00000000E+00
Nuclear GFac                               R   N=           2
  0.00000000E+00  0.00000000E+00
MicOpt                                     I   N=           2
          -1          -1
Number of contracted shells                I               30
Number of primitive shells                 I               72
Pure/Cartesian d shells                    I                0
Pure/Cartesian f shells                    I                0
Highest angular momentum                   I                3
Largest degree of contraction              I                8
Shell types                                I   N=          30
           0           0           0           0           0           0
           1           1           1          -2          -2          -2
           1          -2          -3           0           0           0
           0           0           0           1           1           1
          -2          -2          -2           1          -2          -3
Number of primitives per shell             I   N=          30
           8           4           2           1           1           1
           6           3           1           4           1           1
           1           1           1           8           4           2
           1           1           1           6           3           1
           4           1           1           1           1           1
Shell to atom map                          I   N=          30
           1           1           1           1           1           1
           1           1           1           1           1           1
           1           1           1           2           2           2
           2           2           2           2           2           2
           2           2           2           2           2           2
Primitive exponents                        R   N=          72
  2.54477807E+05  3.81317971E+04  8.67529306E+03  2.45500998E+03  7.99162178E+02
  2.86900215E+02  1.11254132E+02  4.38641526E+01  2.79326692E+02  8.62747324E+01
  1.35557561E+01  5.69781128E+00  8.56365826E+00  1.39882968E+00  5.72881711E-01
  9.00961713E-02  3.41258851E-02  1.30643989E+03  3.09253114E+02  9.89962740E+01
  3.67569165E+01  1.45666571E+01  5.87399374E+00  2.28909997E+01  3.08550018E+00
  1.21323291E+00  4.49316807E-01  4.37200745E+01  1.23912427E+01  4.26394420E+00
  1.55252218E+00  5.37619295E-01  1.64931731E-01  1.20675000E-01  5.10000000E-02
  1.14700000E+00  2.54477807E+05  3.81317971E+04  8.67529306E+03  2.45500998E+03
  7.99162178E+02  2.86900215E+02  1.11254132E+02  4.38641526E+01  2.79326692E+02
  8.62747324E+01  1.35557561E+01  5.69781128E+00  8.56365826E+00  1.39882968E+00
  5.72881711E-01  9.00961713E-02  3.41258851E-02  1.30643989E+03  3.09253114E+02
  9.89962740E+01  3.67569165E+01  1.45666571E+01  5.87399374E+00  2.28909997E+01
  3.08550018E+00  1.21323291E+00  4.49316807E-01  4.37200745E+01  1.23912427E+01
  4.26394420E+00  1.55252218E+00  5.37619295E-01  1.64931731E-01  1.20675000E-01
  5.10000000E-02  1.14700000E+00
Contraction coefficients                   R   N=          72
  2.42904776E-04  1.88435236E-03  9.80095844E-03  3.98250087E-02  1.29405437E-01
  3.06290018E-01  4.34628350E-01  2.24695629E-01 -2.43633579E-02 -1.15114954E-01
  5.50922663E-01  5.36113547E-01 -3.71230177E-01  1.16811695E+00  1.00000000E+00
  1.00000000E+00  1.00000000E+00  2.82928007E-03  2.27766292E-02  1.05645619E-01
  2.99499449E-01  4.77062454E-01  2.76542344E-01 -1.94121061E-02  3.86188758E-01
  6.76239089E-01  1.00000000E+00  2.20932593E-02  1.28014388E-01  3.86529103E-01
  6.41033014E-01  1.00000000E+00  1.00000000E+00  1.00000000E+00  1.00000000E+00
  1.00000000E+00  2.42904776E-04  1.88435236E-03  9.80095844E-03  3.98250087E-02
  1.29405437E-01  3.06290018E-01  4.34628350E-01  2.24695629E-01 -2.43633579E-02
 -1.15114954E-01  5.50922663E-01  5.36113547E-01 -3.71230177E-01  1.16811695E+00
  1.00000000E+00  1.00000000E+00  1.00000000E+00  2.82928007E-03  2.27766292E-02
  1.05645619E-01  2.99499449E-01  4.77062454E-01  2.76542344E-01 -1.94121061E-02
  3.86188758E-01  6.76239089E-01  1.00000000E+00  2.20932593E-02  1.28014388E-01
  3.86529103E-01  6.41033014E-01  1.00000000E+00  1.00000000E+00  1.00000000E+00
  1.00000000E+00  1.00000000E+00
Coordinates of each shell                  R   N=          90
  0.00000000E+00  0.00000000E+00  0.00000000E+00  0.00000000E+00  0.00000000E+00
  0.00000000E+00  0.00000000E+00  0.00000000E+00  0.00000000E+00  0.00000000E+00
  0.00000000E+00  0.00000000E+00  0.00000000E+00  0.00000000E+00  0.00000000E+00
  0.00000000E+00  0.00000000E+00  0.00000000E+00  0.00000000E+00  0.00000000E+00
  0.00000000E+00  0.00000000E+00  0.00000000E+00  0.00000000E+00  0.00000000E+00
  0.00000000E+00  0.00000000E+00  0.00000000E+00  0.00000000E+00  0.00000000E+00
  0.00000000E+00  0.00000000E+00  0.00000000E+00  0.00000000E+00  0.00000000E+00
  0.00000000E+00  0.00000000E+00  0.00000000E+00  0.00000000E+00  0.00000000E+00
  0.00000000E+00  0.00000000E+00  0.00000000E+00  0.00000000E+00  0.00000000E+00
  0.00000000E+00  0.00000000E+00  5.66917840E+00  0.00000000E+00  0.00000000E+00
  5.66917840E+00  0.00000000E+00  0.00000000E+00  5.66917840E+00  0.00000000E+00
  0.00000000E+00  5.66917840E+00  0.00000000E+00  0.00000000E+00  5.66917840E+00
  0.00000000E+00  0.00000000E+00  5.66917840E+00  0.00000000E+00  0.00000000E+00
  5.66917840E+00  0.00000000E+00  0.00000000E+00  5.66917840E+00  0.00000000E+00
  0.00000000E+00  5.66917840E+00  0.00000000E+00  0.00000000E+00  5.66917840E+00
  0.00000000E+00  0.00000000E+00  5.66917840E+00  0.00000000E+00  0.00000000E+00
  5.66917840E+00  0.00000000E+00  0.00000000E+00  5.66917840E+00  0.00000000E+00
  0.00000000E+00  5.66917840E+00  0.00000000E+00  0.00000000E+00  5.66917840E+00
Constraint Structure                       R   N=           6
  0.00000000E+00  0.00000000E+00  0.00000000E+00  0.00000000E+00  0.00000000E+00
  5.66917840E+00
Num ILSW                                   I              100
ILSW                                       I   N=         100
           0           0           0           0           2           1
           0           0           0           0           0          -1
           0           0           0           0           0           0
           0           0           0           0           0           0
           1           1           0           0           0           0
           0           0      100000           0          -1           0
           0           0           0           0           0           0
           0           0           0           1           0           0
           0           0           1           0           0           0
           0           0           4          40           0           0
           0           0           0           0           0           0
           0           0           0           0           0           0
           0           0           0           0           0           0
           0           0           0           0           0           0
           0           0           0           0           0           0
           0           0           0           0           0           0
           0           0           0           0
Num RLSW                                   I               40
RLSW                                       R   N=          40
  1.00000000E+00  1.00000000E+00  1.00000000E+00  1.00000000E+00  1.00000000E+00
  0.00000000E+00  0.00000000E+00  1.00000000E+00  0.00000000E+00  0.00000000E+00
  0.00000000E+00  0.00000000E+00  1.00000000E+00  0.00000000E+00  0.00000000E+00
  0.00000000E+00  0.00000000E+00  1.00000000E+00  0.00000000E+00  0.00000000E+00
  0.00000000E+00  0.00000000E+00  1.00000000E+00  0.00000000E+00  0.00000000E+00
  0.00000000E+00  0.00000000E+00  1.00000000E+00  0.00000000E+00  0.00000000E+00
  0.00000000E+00  0.00000000E+00  1.00000000E+00  0.00000000E+00  0.00000000E+00
  0.00000000E+00  0.00000000E+00  0.00000000E+00  1.00000000E+00  1.00000000E+00
ECP-MxAtEC                                 I           250000
ECP-MaxLECP                                I               10
ECP-MaxAtL                                 I          2250000
ECP-MxTECP                                 I         11250000
ECP-LenNCZ                                 I                0
ECP-KFirst                                 I   N=          20
           0           0           0           0           0           0
           0           0           0           0           0           0
           0           0           0           0           0           0
           0           0
ECP-KLast                                  I   N=          20
           0           0           0           0           0           0
           0           0           0           0           0           0
           0           0           0           0           0           0
           0           0
ECP-LMax                                   I   N=           2
           0           0
ECP-LPSkip                                 I   N=           2
           1           1
ECP-RNFroz                                 R   N=           2
  0.00000000E+00  0.00000000E+00
ECP-NLP                                    I                0
ECP-CLP1                                   R      0.000000000000000E+00
ECP-CLP2                                   R      0.000000000000000E+00
ECP-ZLP                                    R      0.000000000000000E+00
MxBond                                     I                1
NBond                                      I   N=           2
           0           0
IBond                                      I   N=           2
           0           0
RBond                                      R   N=           2
  0.00000000E+00  0.00000000E+00
Virial Ratio                               R      2.000014116054456E+00
SCF Energy                                 R     -2.086669893077688E+03
Total Energy                               R     -2.086669893077688E+03
S**2                                       R      5.674569458496531E+00
S**2 after annihilation                    R      1.770799823535780E+01
RMS Density                                R      1.813221425799566E-09
External E-field                           R   N=          35
  0.00000000E+00  0.00000000E+00  0.00000000E+00  0.00000000E+00  0.00000000E+00
  0.00000000E+00  0.00000000E+00  0.00000000E+00  0.00000000E+00  0.00000000E+00
  0.00000000E+00  0.00000000E+00  0.00000000E+00  0.00000000E+00  0.00000000E+00
  0.00000000E+00  0.00000000E+00  0.00000000E+00  0.00000000E+00  0.00000000E+00
  0.00000000E+00  0.00000000E+00  0.00000000E+00  0.00000000E+00  0.00000000E+00
  0.00000000E+00  0.00000000E+00  0.00000000E+00  0.00000000E+00  0.00000000E+00
  0.00000000E+00  0.00000000E+00  0.00000000E+00  0.00000000E+00  0.00000000E+00
IOpCl                                      I                0
IROHF                                      I                0
Alpha Orbital Energies                     R   N=          90
  2.00000000E+00  2.00000000E+00  2.00000000E+00  2.00000000E+00  2.00000000E+00
  2.00000000E+00  2.00000000E+00  2.00000000E+00  2.00000000E+00  2.00000000E+00
  2.00000000E+00  2.00000000E+00  2.00000000E+00  2.00000000E+00  2.00000000E+00
  2.00000000E+00  2.00000000E+00  2.00000000E+00  1.89920609E+00  1.16727798E+00
  1.13877963E+00  1.13877939E+00  1.03111822E+00  1.03111816E+00  9.68881836E-01
  9.68881778E-01  8.61220613E-01  8.61220371E-01  8.32722017E-01  1.00793908E-01
  0.00000000E+00  0.00000000E+00  0.00000000E+00  0.00000000E+00  0.00000000E+00
  0.00000000E+00  0.00000000E+00  0.00000000E+00  0.00000000E+00  0.00000000E+00
  0.00000000E+00  0.00000000E+00  0.00000000E+00  0.00000000E+00  0.00000000E+00
  0.00000000E+00  0.00000000E+00  0.00000000E+00  0.00000000E+00  0.00000000E+00
  0.00000000E+00  0.00000000E+00  0.00000000E+00  0.00000000E+00  0.00000000E+00
  0.00000000E+00  0.00000000E+00  0.00000000E+00  0.00000000E+00  0.00000000E+00
  0.00000000E+00  0.00000000E+00  0.00000000E+00  0.00000000E+00  0.00000000E+00
  0.00000000E+00  0.00000000E+00  0.00000000E+00  0.00000000E+00  0.00000000E+00
  0.00000000E+00  0.00000000E+00  0.00000000E+00  0.00000000E+00  0.00000000E+00
  0.00000000E+00  0.00000000E+00  0.00000000E+00  0.00000000E+00  0.00000000E+00
  0.00000000E+00  0.00000000E+00  0.00000000E+00  0.00000000E+00  0.00000000E+00
  0.00000000E+00  0.00000000E+00  0.00000000E+00  0.00000000E+00  0.00000000E+00
Alpha MO coefficients                      R   N=        8100
  9.24856412E-01  6.44853460E-03 -2.15193714E-03  1.46144802E-03 -6.04856119E-04
  2.02244168E-04  1.08705793E-11 -1.32248934E-11 -1.97562752E-07  0.00000000E+00
  0.00000000E+00 -1.90183181E-05  0.00000000E+00  0.00000000E+00  6.95700796E-05
 -7.86459520E-06  0.00000000E+00  0.00000000E+00 -1.78458968E-10 -3.59524648E-11
  3.42035892E-05  0.00000000E+00  0.00000000E+00 -1.30596631E-10 -2.61267109E-11
 -1.33728471E-04  0.00000000E+00  0.00000000E+00 -5.31162248E-11 -1.42811060E-11
  0.00000000E+00  0.00000000E+00 -2.21579135E-04 -1.05300306E-05  0.00000000E+00
  0.00000000E+00 -1.05655099E-11  0.00000000E+00 -6.43849700E-06  0.00000000E+00
  0.00000000E+00 -4.99925120E-12  0.00000000E+00  0.00000000E+00  0.00000000E+00
 -3.74529934E-01 -2.60646349E-03  9.01150488E-04 -6.57684214E-04  3.52208204E-04
 -8.99842129E-05  0.00000000E+00  0.00000000E+00  2.06765075E-06  0.00000000E+00
  0.00000000E+00 -1.91291624E-05  0.00000000E+00  0.00000000E+00  7.08787056E-05
  4.63076386E-06  0.00000000E+00  0.00000000E+00  2.87982314E-11  1.19546823E-11
 -2.53702288E-05  0.00000000E+00  0.00000000E+00  3.18697349E-11  0.00000000E+00
  1.26998767E-04  0.00000000E+00  0.00000000E+00  1.06232450E-11  0.00000000E+00
  0.00000000E+00  0.00000000E+00 -2.35338657E-04  3.29708751E-05  0.00000000E+00
  0.00000000E+00 -2.94448638E-12  0.00000000E+00 -7.42243179E-06  0.00000000E+00
  0.00000000E+00 -3.53596860E-12  0.00000000E+00  0.00000000E+00  0.00000000E+00
  3.74533322E-01  2.61829493E-03 -8.30101994E-04  5.00140093E-04 -9.55957265E-05
  7.06471185E-05  0.00000000E+00  0.00000000E+00 -3.07028871E-06  0.00000000E+00
  0.00000000E+00  8.20907362E-06  0.00000000E+00  0.00000000E+00 -3.12868231E-05
 -1.17171340E-06  0.00000000E+00  0.00000000E+00 -9.42108622E-11 -1.79552421E-11
 -2.18718531E-06  0.00000000E+00  0.00000000E+00 -6.28214828E-11 -1.29269937E-11
  4.72675720E-05  0.00000000E+00  0.00000000E+00 -2.85211033E-11  0.00000000E+00
  0.00000000E+00  0.00000000E+00  1.13002425E-04  3.57047401E-05  0.00000000E+00
  0.00000000E+00 -5.83123772E-12  0.00000000E+00  4.09683154E-06  0.00000000E+00
  0.00000000E+00 -2.04989189E-12  0.00000000E+00  0.00000000E+00  0.00000000E+00
  9.24857784E-01  6.45332609E-03 -2.12316533E-03  1.39764859E-03 -5.00937763E-04
  1.94413572E-04  1.39825963E-11  0.00000000E+00  2.27834097E-06  0.00000000E+00
  0.00000000E+00  7.94736326E-06  0.00000000E+00  0.00000000E+00 -2.81969282E-05
 -6.46384596E-06  0.00000000E+00  0.00000000E+00 -1.73770884E-10 -3.88330863E-11
  2.30438906E-05  0.00000000E+00  0.00000000E+00 -1.37986714E-10 -2.80957768E-11
 -6.31573065E-05  0.00000000E+00  0.00000000E+00 -5.58297710E-11 -1.57996509E-11
  0.00000000E+00  0.00000000E+00  8.05143162E-05  1.72809551E-05  0.00000000E+00
  0.00000000E+00 -1.92604050E-11  0.00000000E+00  1.77363706E-06  0.00000000E+00
  0.00000000E+00  8.82199509E-12  0.00000000E+00  0.00000000E+00  0.00000000E+00
 -2.55283543E-01  8.48619146E-01  2.72791088E-02 -7.43613707E-03  2.53659310E-03
 -8.30682539E-04  1.98328404E-09 -2.94339911E-09 -4.69022741E-04  1.74164153E-11
  2.57868848E-10  2.64742795E-05  3.40123959E-10 -5.04384180E-10 -2.79227575E-04
 -4.61718816E-05  2.12266982E-09 -1.86707730E-09 -5.49352245E-08 -2.53011821E-08
 -2.08000538E-04  2.18494436E-09 -9.94708882E-10 -4.76937510E-08 -2.21484537E-08
  5.27438787E-04  1.66855663E-10 -5.84489119E-10 -2.24825968E-08 -1.05609400E-08
 -1.97090758E-10  2.47866697E-10  9.68164896E-04  7.62894959E-05 -2.97270681E-10
 -4.97773827E-10 -3.69636963E-09 -2.10034744E-09  2.62545341E-05  1.30934803E-10
  4.29214634E-11  3.17415118E-10  2.84155326E-11  5.54448093E-12 -3.97031496E-12
  1.79282495E-01 -5.95994552E-01 -1.92165884E-02  5.36118802E-03 -2.01768281E-03
  6.09544424E-04 -2.00092795E-09  1.09096828E-09 -3.32516667E-04 -4.00784057E-11
  1.27751131E-10  3.84161141E-05 -1.38663676E-10  2.04879005E-10 -2.84009118E-04
  1.83766189E-05  3.14506663E-09  7.43142683E-10  3.54723774E-08  1.60404364E-08
  1.56620907E-04  2.38672232E-09  5.57113982E-10  3.15886807E-08  1.46009252E-08
 -5.27132641E-04  1.64870917E-09  5.47774092E-11  1.42830683E-08  6.31359943E-09
  1.85463332E-10 -4.91372174E-10  9.96586903E-04 -1.23291448E-04  3.49652828E-10
  2.59511952E-10  2.36251730E-09  1.46768044E-09  2.81498254E-05  1.14822323E-10
  3.01620413E-11  1.91501016E-10  2.06735695E-11 -5.75095512E-12  7.78780558E-12
 -1.79292929E-01  5.95951276E-01  1.89855542E-02 -4.81347261E-03  1.08555886E-03
 -5.06163998E-04  1.50725216E-09 -1.95180542E-09 -3.20212852E-04 -3.69429772E-10
 -2.12189844E-10 -3.98328402E-05  5.06028111E-10 -1.73410749E-10  6.29212425E-05
 -7.41265018E-05  3.65436831E-09 -1.82691497E-10 -4.71128212E-08 -2.24012197E-08
 -1.15198506E-04  2.90341499E-09 -3.48121581E-10 -3.94304830E-08 -1.87596753E-08
 -9.14385901E-05  2.07403225E-09  3.83751986E-10 -2.02247531E-08 -9.32325175E-09
 -1.28266910E-10  6.37518994E-10 -2.53047259E-04 -1.51846199E-04  5.14842257E-10
 -1.19355858E-10 -3.36733771E-09 -1.58646272E-09 -1.01734333E-05 -1.98710022E-10
 -3.67816917E-11  7.92505528E-11  1.97942985E-11  3.94245373E-12 -9.49699196E-12
 -2.55290872E-01  8.48588757E-01  2.71168383E-02 -7.05148862E-03  1.88201184E-03
 -7.58051730E-04  2.89409141E-09 -1.52542482E-09  4.60399212E-04 -5.51880158E-11
 -2.66316709E-10  2.84843546E-05  1.56676671E-10 -3.38629186E-10  3.55780574E-05
 -8.53314519E-05 -5.22968248E-09 -1.10521804E-09 -6.27079180E-08 -2.96856067E-08
 -1.78912412E-04 -4.16286647E-09 -9.71592288E-10 -5.34186408E-08 -2.52256563E-08
  9.30150517E-05 -2.42551235E-09 -2.00890585E-11 -2.65709873E-08 -1.24280169E-08
 -6.73244841E-11  1.23873480E-09 -9.05553425E-05 -1.16941792E-04 -3.03055910E-10
 -2.33214835E-10 -4.15784570E-09 -2.16406228E-09  6.59567423E-07 -1.73071950E-10
 -1.91343561E-11 -3.74954276E-10 -2.89670227E-11  7.66542312E-12 -4.94046950E-12
 -1.46786475E-04  5.04198518E-04  3.60111605E-06 -3.08654735E-05 -2.56094329E-04
  2.83827011E-04 -1.31107989E-05 -1.48430989E-06  8.05267778E-01 -2.84329695E-07
 -3.16997450E-08  1.75544930E-02  5.57516245E-08  5.64328190E-09 -3.67692860E-03
 -3.56279368E-05  3.58731171E-10  3.40509556E-10 -1.88909008E-09 -2.23674062E-10
 -1.07277888E-04  1.91366202E-11  1.36363269E-10 -1.59868290E-09 -1.59863227E-10
  1.46249261E-04 -1.16966572E-11 -1.62267248E-10 -4.29086720E-10 -9.34104089E-11
 -1.46664414E-08 -1.13036507E-09  1.17859909E-03  2.15152895E-04  7.15871635E-10
  1.02391272E-09 -4.21465697E-11 -1.56771857E-11  1.76339493E-06  3.35871485E-11
  6.74075184E-11 -5.85559731E-10 -4.54500056E-11  1.86987247E-11 -1.11487496E-11
 -1.07861854E-04  3.54191713E-04 -4.47256653E-05  9.96979511E-05 -5.12721118E-04
  8.85982861E-05 -1.03845985E-05 -3.83882017E-06 -5.79677746E-01 -2.24784978E-07
 -8.33556090E-08 -1.26232968E-02  4.31520065E-08  1.67998529E-08  2.58107470E-03
 -2.35963928E-05 -1.07494423E-09 -3.88711421E-10 -1.82200198E-09 -2.26544115E-10
 -9.28265807E-05  1.76672741E-10  1.46805706E-11 -1.37057180E-09 -1.61445139E-10
 -8.05178695E-06  4.37779828E-11  1.72714324E-10 -4.29785314E-10 -9.46801917E-11
 -9.81034116E-09 -5.23930558E-09 -4.87541947E-04  1.42038215E-04 -2.44878532E-09
  2.04473094E-10 -4.83819525E-11 -1.60448369E-11  7.62477068E-06  3.12762830E-11
  5.51792387E-11  3.30678519E-10  3.03921238E-11  1.39484684E-11 -8.24595611E-12
 -9.87510057E-05  3.90574926E-04  1.51691352E-04 -4.06376533E-04  8.50341869E-04
  5.68932213E-04 -9.40127820E-06 -9.81115967E-07  5.79667994E-01 -2.05058443E-07
 -2.19243544E-08  1.26788394E-02  4.33649773E-08  5.36930583E-09 -2.85410889E-03
 -3.21209202E-05  2.46611055E-10  2.87187217E-10  1.06290185E-09  8.63211423E-11
 -2.80659914E-05 -6.34121497E-11 -1.66076402E-10  2.49877197E-10  5.04891093E-11
  4.62376816E-04 -9.10682020E-11 -6.48947904E-11  9.35307436E-11  3.30616609E-11
 -1.73241095E-08 -2.52244369E-09  1.98554139E-03  1.95337990E-04 -7.39546597E-09
 -1.29989553E-09  2.95603338E-11  0.00000000E+00  2.92950099E-05 -5.71367349E-11
 -6.01053415E-11 -4.51994387E-10 -5.03526951E-11  1.47526415E-11 -1.55191324E-11
  1.40233974E-04 -5.30409268E-04 -1.44992049E-04  3.95164829E-04 -7.25110613E-04
 -6.29597549E-04  1.45962006E-05  5.37915948E-06  8.05260756E-01  3.17807915E-07
  1.16663188E-07  1.75944799E-02 -6.55644056E-08 -2.31764168E-08 -3.87346682E-03
  4.17683910E-05  1.36142002E-09  5.47923075E-10 -3.39020078E-10 -1.39615591E-11
  6.06596204E-05 -6.30227407E-10 -2.63232901E-10  1.02190998E-10  0.00000000E+00
 -4.84887770E-04 -1.98921669E-11 -1.69849219E-10  5.19615242E-11  0.00000000E+00
  2.32528550E-08  6.99308630E-09  2.25693771E-03 -2.53520565E-04 -6.22935580E-09
 -9.00842873E-10 -1.32790562E-11  0.00000000E+00  2.83403324E-05  2.59938159E-11
  1.86492630E-11 -5.18315740E-10 -6.66037085E-11 -2.45886869E-11  1.45403399E-11
 -2.25195632E-09  8.15122516E-09  1.14906347E-09 -3.26218871E-09 -9.69795704E-11
  8.20572079E-09  9.18506884E-01  2.04402611E-01  1.52676432E-05  1.99528074E-02
  4.44025419E-03  3.33403648E-07 -3.97667042E-03 -8.84953530E-04 -7.06219912E-08
 -2.55505858E-10 -5.74713797E-05 -1.27893231E-05  8.41393783E-11 -5.35112453E-11
 -1.50112031E-09  3.46053174E-06  7.69225033E-07 -5.47178325E-11  3.53809190E-11
  4.59544854E-09  1.76418189E-05  3.92648663E-06  3.52073159E-11  0.00000000E+00
  1.16986862E-03  2.60325491E-04  2.67405535E-08  4.86605880E-09  6.91515888E-05
  1.53708381E-05  1.79297281E-11  0.00000000E+00  3.35500751E-11 -2.06166623E-06
 -4.59037920E-07  2.59877764E-11 -2.60956972E-11 -1.24465878E-10 -7.62455093E-10
 -7.85085997E-10  2.45920661E-09 -2.88394113E-10  2.67032304E-09 -1.23889729E-08
 -1.95025063E-09  3.07231337E-01  6.84264636E-02 -6.04400954E-06  6.63860834E-03
  1.47855583E-03 -1.31637816E-07 -1.22849465E-03 -2.73630582E-04  2.62183481E-08
 -2.34445033E-10  1.58121001E-05  3.52230625E-06  4.62447116E-12  0.00000000E+00
 -8.89391147E-10  1.17516370E-05  2.61462324E-06 -2.86236009E-11  1.23269419E-11
 -2.20252636E-09 -1.13355203E-05 -2.52355449E-06 -1.01972182E-11  0.00000000E+00
  1.73508869E-04  3.86883922E-05  1.08493649E-09  1.83736789E-09  2.33783021E-04
  5.20154078E-05  2.25407360E-12  0.00000000E+00  8.08034222E-11 -6.65431121E-06
 -1.48086581E-06 -6.37130253E-12  0.00000000E+00 -3.98980287E-10 -1.89138807E-10
 -5.95973424E-10  1.90360948E-09  2.03049434E-09  3.30326169E-09 -6.73942750E-09
 -5.74381636E-09 -2.04429224E-01  9.18425173E-01 -1.67995153E-06 -4.44083728E-03
  1.99510258E-02 -3.63805321E-08  8.85079663E-04 -3.97628245E-03  8.23383236E-09
  3.50871178E-10  1.27916402E-05 -5.74649484E-05  5.97114816E-11  9.91376458E-11
 -9.20556665E-10 -7.71009091E-07  3.45580617E-06 -4.25170732E-11 -5.44936548E-11
 -1.08437022E-09 -3.92633395E-06  1.76420803E-05  3.35040102E-11  2.44990819E-11
 -2.60382776E-04  1.16969101E-03 -4.65882886E-09 -9.40717635E-10 -1.54008776E-05
  6.90599233E-05 -4.79306552E-12  0.00000000E+00 -1.89021401E-10  4.58309911E-07
 -2.06283120E-06 -1.89725076E-11 -1.81703861E-11 -6.50342370E-10 -7.54907200E-12
 -1.09584728E-10  6.34110664E-10  2.99860683E-09  1.01864051E-09 -2.91760908E-09
 -3.84441293E-09 -6.83469166E-02  3.07475516E-01 -8.73117523E-07 -1.47682594E-03
  6.64392159E-03 -1.94674341E-08  2.73279533E-04 -1.22957220E-03  4.01899874E-09
 -1.01105827E-09 -3.51723093E-06  1.58277507E-05  3.33347935E-11  2.99353613E-11
 -1.10182153E-09 -2.61562389E-06  1.17479976E-05 -1.32962612E-12 -1.62711963E-11
  1.50568382E-09  2.52220449E-06 -1.13392401E-05  1.04026025E-11  0.00000000E+00
 -3.85727880E-05  1.73863665E-04 -2.99781821E-09  6.68625038E-11 -5.20380610E-05
  2.33712769E-04 -1.58703301E-12  0.00000000E+00  4.04233456E-10  1.48105673E-06
 -6.65355305E-06  3.99552704E-12  0.00000000E+00 -1.99385256E-11  1.95748370E-10
  7.69613116E-10 -3.62007819E-09 -1.98412086E-09  8.41992340E-09 -1.85846960E-08
 -1.20090388E-08 -3.07119652E-01 -6.88528926E-02 -5.21498554E-06 -6.71590206E-03
 -1.50562030E-03 -1.13749831E-07  1.45690875E-03  3.26588528E-04  2.68428106E-08
  1.15701051E-10  2.34867561E-05  5.26429774E-06 -4.26231620E-11  3.62376542E-11
  5.78678751E-11 -1.73144578E-05 -3.87719389E-06  9.24096939E-12  0.00000000E+00
 -7.76346845E-09  9.03042622E-07  2.00483739E-07 -2.54608293E-11  1.15842566E-11
 -6.63761591E-04 -1.48733888E-04 -2.79243142E-08 -1.99095275E-09 -3.44670234E-04
 -7.71835152E-05 -4.86483882E-12  0.00000000E+00 -2.53602753E-10 -6.77591766E-06
 -1.51709560E-06 -1.29263339E-11  1.45667467E-11 -2.78180522E-10  5.60169992E-11
 -2.09024861E-09  8.33066970E-09  4.35225823E-09 -6.78131856E-09  7.90656423E-09
  1.03255014E-08  9.18238494E-01  2.05579892E-01 -1.79321682E-05  1.99736420E-02
  4.47180397E-03 -3.91978690E-07 -4.05205492E-03 -9.07205840E-04  8.45131554E-08
 -3.72649183E-10  6.00260573E-05  1.34390662E-05  7.93234600E-11 -5.12515262E-11
 -1.27773369E-09 -1.31809920E-05 -2.95188990E-06 -4.34385341E-11  1.99570646E-11
  9.13354022E-09 -1.35436481E-05 -3.03210095E-06  3.61046568E-11  0.00000000E+00
  1.33353168E-03  2.98582874E-04 -4.25160275E-08  5.80471047E-09 -2.62589788E-04
 -5.88192382E-05  2.80149403E-12  0.00000000E+00 -2.18548950E-10  2.43035391E-06
  5.44715325E-07 -3.65524296E-11  3.02219429E-11  1.34400257E-10 -8.85764381E-11
  2.24091543E-10 -8.33636830E-10 -6.99221888E-10  6.07780354E-11  1.85831431E-10
  3.10859593E-10  6.87730318E-02 -3.07363730E-01  5.63216327E-07  1.50388586E-03
 -6.72120583E-03  1.18914269E-08 -3.26242705E-04  1.45796522E-03 -2.30563229E-09
 -5.60844269E-11 -5.25914764E-06  2.35019957E-05 -1.30777861E-11 -3.20376112E-11
 -1.52524941E-10  3.87687322E-06 -1.73153564E-05  1.93546057E-11  1.95836985E-11
  1.03947925E-10 -2.02138427E-07  8.98303956E-07 -7.47552366E-12  0.00000000E+00
  1.48631857E-04 -6.64071519E-04  4.07306587E-10 -6.48907266E-11  7.71771183E-05
 -3.44688179E-04  3.04018645E-12  0.00000000E+00 -1.95491897E-10  1.51736086E-06
 -6.77570707E-06  8.37540070E-12  0.00000000E+00 -2.71840131E-11  3.96260283E-10
 -1.30464381E-09  4.27069240E-09 -8.10415332E-10  2.46231319E-10  8.12620175E-10
  2.30624760E-10 -2.05606620E-01  9.18156817E-01 -2.38338059E-06 -4.47238275E-03
  1.99718823E-02 -5.15966317E-08  9.07312590E-04 -4.05172792E-03  1.07303299E-08
 -3.19319077E-10 -1.34407294E-05  6.00218949E-05  4.68132393E-11  8.68707658E-11
 -2.10025820E-10  2.95139383E-06 -1.31838326E-05 -3.63873564E-11 -5.25928770E-11
 -1.90219242E-10  3.03256619E-06 -1.35406689E-05  1.43858180E-11  3.02399457E-11
 -2.98597337E-04  1.33348420E-03 -4.17716602E-09  2.91009443E-10  5.87989943E-05
 -2.62651601E-04 -1.05875341E-11 -1.03648253E-11 -3.65759598E-10 -5.44277171E-07
  2.43284897E-06  2.55953954E-11  1.87319212E-11  1.32370389E-12 -2.47692906E-10
  7.95134181E-02 -3.14577471E-01  4.52053873E-01  3.29736388E-01  1.06939866E-02
 -1.68879553E-03 -3.46930316E-09  3.14129894E-09  1.01919157E-03  7.10885983E-09
 -7.90227279E-09 -2.10512122E-03  5.40590814E-09 -8.42893384E-10 -1.85611238E-03
 -3.27223222E-03  1.15059611E-07 -1.33366006E-08 -1.88268149E-06 -8.82046288E-07
 -2.51115253E-03  7.86112612E-08 -9.69468716E-09 -1.23520049E-06 -5.77851464E-07
 -9.87873398E-04  4.86643010E-08 -6.05542876E-09 -7.48463033E-07 -3.50634375E-07
  1.25813962E-09 -1.74610904E-09  1.00100613E-04 -6.61761500E-04  4.69077035E-09