HF file generated by AutoMR of MOKIT
Stability RHF                                                         Gen
Number of atoms                            I                2
Info1-9                                    I   N=           9
           6           5           0           0           0         110
           7           1           2
Charge                                     I                0
Multiplicity                               I                1
Number of electrons                        I               48
Number of alpha electrons                  I               24
Number of beta electrons                   I               24
Number of basis functions                  I               90
Number of independent functions            I               90
Number of point charges in /Mol/           I                0
Number of translation vectors              I                0
Atomic numbers                             I   N=           2
          24          24
Nuclear charges                            R   N=           2
  2.40000000E+01  2.40000000E+01
Current cartesian coordinates              R   N=           6
  0.00000000E+00  0.00000000E+00  0.00000000E+00  0.00000000E+00  0.00000000E+00
  5.66917840E+00
Force Field                                I                0
Int Atom Types                             I   N=           2
           0           0
MM charges                                 R   N=           2
  0.00000000E+00  0.00000000E+00
Integer atomic weights                     I   N=           2
          52          52
Real atomic weights                        R   N=           2
  5.19405097E+01  5.19405097E+01
Atom fragment info                         I   N=           2
           1           2
Atom residue num                           I   N=           2
           0           0
Nuclear spins                              I   N=           2
           0           0
Nuclear ZEff                               R   N=           2
 -2.47200000E+01 -2.47200000E+01
Nuclear QMom                               R   N=           2
  0.00000000E+00  0.00000000E+00
Nuclear GFac                               R   N=           2
  0.00000000E+00  0.00000000E+00
MicOpt                                     I   N=           2
          -1          -1
Number of contracted shells                I               30
Number of primitive shells                 I               72
Pure/Cartesian d shells                    I                0
Pure/Cartesian f shells                    I                0
Highest angular momentum                   I                3
Largest degree of contraction              I                8
Shell types                                I   N=          30
           0           0           0           0           0           0
           1           1           1          -2          -2          -2
           1          -2          -3           0           0           0
           0           0           0           1           1           1
          -2          -2          -2           1          -2          -3
Number of primitives per shell             I   N=          30
           8           4           2           1           1           1
           6           3           1           4           1           1
           1           1           1           8           4           2
           1           1           1           6           3           1
           4           1           1           1           1           1
Shell to atom map                          I   N=          30
           1           1           1           1           1           1
           1           1           1           1           1           1
           1           1           1           2           2           2
           2           2           2           2           2           2
           2           2           2           2           2           2
Primitive exponents                        R   N=          72
  2.54477807E+05  3.81317971E+04  8.67529306E+03  2.45500998E+03  7.99162178E+02
  2.86900215E+02  1.11254132E+02  4.38641526E+01  2.79326692E+02  8.62747324E+01
  1.35557561E+01  5.69781128E+00  8.56365826E+00  1.39882968E+00  5.72881711E-01
  9.00961713E-02  3.41258851E-02  1.30643989E+03  3.09253114E+02  9.89962740E+01
  3.67569165E+01  1.45666571E+01  5.87399374E+00  2.28909997E+01  3.08550018E+00
  1.21323291E+00  4.49316807E-01  4.37200745E+01  1.23912427E+01  4.26394420E+00
  1.55252218E+00  5.37619295E-01  1.64931731E-01  1.20675000E-01  5.10000000E-02
  1.14700000E+00  2.54477807E+05  3.81317971E+04  8.67529306E+03  2.45500998E+03
  7.99162178E+02  2.86900215E+02  1.11254132E+02  4.38641526E+01  2.79326692E+02
  8.62747324E+01  1.35557561E+01  5.69781128E+00  8.56365826E+00  1.39882968E+00
  5.72881711E-01  9.00961713E-02  3.41258851E-02  1.30643989E+03  3.09253114E+02
  9.89962740E+01  3.67569165E+01  1.45666571E+01  5.87399374E+00  2.28909997E+01
  3.08550018E+00  1.21323291E+00  4.49316807E-01  4.37200745E+01  1.23912427E+01
  4.26394420E+00  1.55252218E+00  5.37619295E-01  1.64931731E-01  1.20675000E-01
  5.10000000E-02  1.14700000E+00
Contraction coefficients                   R   N=          72
  2.42904776E-04  1.88435236E-03  9.80095844E-03  3.98250087E-02  1.29405437E-01
  3.06290018E-01  4.34628350E-01  2.24695629E-01 -2.43633579E-02 -1.15114954E-01
  5.50922663E-01  5.36113547E-01 -3.71230177E-01  1.16811695E+00  1.00000000E+00
  1.00000000E+00  1.00000000E+00  2.82928007E-03  2.27766292E-02  1.05645619E-01
  2.99499449E-01  4.77062454E-01  2.76542344E-01 -1.94121061E-02  3.86188758E-01
  6.76239089E-01  1.00000000E+00  2.20932593E-02  1.28014388E-01  3.86529103E-01
  6.41033014E-01  1.00000000E+00  1.00000000E+00  1.00000000E+00  1.00000000E+00
  1.00000000E+00  2.42904776E-04  1.88435236E-03  9.80095844E-03  3.98250087E-02
  1.29405437E-01  3.06290018E-01  4.34628350E-01  2.24695629E-01 -2.43633579E-02
 -1.15114954E-01  5.50922663E-01  5.36113547E-01 -3.71230177E-01  1.16811695E+00
  1.00000000E+00  1.00000000E+00  1.00000000E+00  2.82928007E-03  2.27766292E-02
  1.05645619E-01  2.99499449E-01  4.77062454E-01  2.76542344E-01 -1.94121061E-02
  3.86188758E-01  6.76239089E-01  1.00000000E+00  2.20932593E-02  1.28014388E-01
  3.86529103E-01  6.41033014E-01  1.00000000E+00  1.00000000E+00  1.00000000E+00
  1.00000000E+00  1.00000000E+00
Coordinates of each shell                  R   N=          90
  0.00000000E+00  0.00000000E+00  0.00000000E+00  0.00000000E+00  0.00000000E+00
  0.00000000E+00  0.00000000E+00  0.00000000E+00  0.00000000E+00  0.00000000E+00
  0.00000000E+00  0.00000000E+00  0.00000000E+00  0.00000000E+00  0.00000000E+00
  0.00000000E+00  0.00000000E+00  0.00000000E+00  0.00000000E+00  0.00000000E+00
  0.00000000E+00  0.00000000E+00  0.00000000E+00  0.00000000E+00  0.00000000E+00
  0.00000000E+00  0.00000000E+00  0.00000000E+00  0.00000000E+00  0.00000000E+00
  0.00000000E+00  0.00000000E+00  0.00000000E+00  0.00000000E+00  0.00000000E+00
  0.00000000E+00  0.00000000E+00  0.00000000E+00  0.00000000E+00  0.00000000E+00
  0.00000000E+00  0.00000000E+00  0.00000000E+00  0.00000000E+00  0.00000000E+00
  0.00000000E+00  0.00000000E+00  5.66917840E+00  0.00000000E+00  0.00000000E+00
  5.66917840E+00  0.00000000E+00  0.00000000E+00  5.66917840E+00  0.00000000E+00
  0.00000000E+00  5.66917840E+00  0.00000000E+00  0.00000000E+00  5.66917840E+00
  0.00000000E+00  0.00000000E+00  5.66917840E+00  0.00000000E+00  0.00000000E+00
  5.66917840E+00  0.00000000E+00  0.00000000E+00  5.66917840E+00  0.00000000E+00
  0.00000000E+00  5.66917840E+00  0.00000000E+00  0.00000000E+00  5.66917840E+00
  0.00000000E+00  0.00000000E+00  5.66917840E+00  0.00000000E+00  0.00000000E+00
  5.66917840E+00  0.00000000E+00  0.00000000E+00  5.66917840E+00  0.00000000E+00
  0.00000000E+00  5.66917840E+00  0.00000000E+00  0.00000000E+00  5.66917840E+00
Constraint Structure                       R   N=           6
  0.00000000E+00  0.00000000E+00  0.00000000E+00  0.00000000E+00  0.00000000E+00
  5.66917840E+00
Num ILSW                                   I              100
ILSW                                       I   N=         100
           0           0           0           0           2           1
           0           0           0           0           0          -1
           0           0           0           0           0           0
           0           0           0           0           0           0
           1           1           0           0           0           0
           0           0      100000           0          -1           0
           0           0           0           0           0           0
           0           0           0           1           0           0
           0           0           1           0           0           0
           0           0           4          40           0           0
           0           0           0           0           0           0
           0           0           0           0           0           0
           0           0           0           0           0           0
           0           0           0           0           0           0
           0           0           0           0           0           0
           0           0           0           0           0           0
           0           0           0           0
Num RLSW                                   I               40
RLSW                                       R   N=          40
  1.00000000E+00  1.00000000E+00  1.00000000E+00  1.00000000E+00  1.00000000E+00
  0.00000000E+00  0.00000000E+00  1.00000000E+00  0.00000000E+00  0.00000000E+00
  0.00000000E+00  0.00000000E+00  1.00000000E+00  0.00000000E+00  0.00000000E+00
  0.00000000E+00  0.00000000E+00  1.00000000E+00  0.00000000E+00  0.00000000E+00
  0.00000000E+00  0.00000000E+00  1.00000000E+00  0.00000000E+00  0.00000000E+00
  0.00000000E+00  0.00000000E+00  1.00000000E+00  0.00000000E+00  0.00000000E+00
  0.00000000E+00  0.00000000E+00  1.00000000E+00  0.00000000E+00  0.00000000E+00
  0.00000000E+00  0.00000000E+00  0.00000000E+00  1.00000000E+00  1.00000000E+00
ECP-MxAtEC                                 I           250000
ECP-MaxLECP                                I               10
ECP-MaxAtL                                 I          2250000
ECP-MxTECP                                 I         11250000
ECP-LenNCZ                                 I                0
ECP-KFirst                                 I   N=          20
           0           0           0           0           0           0
           0           0           0           0           0           0
           0           0           0           0           0           0
           0           0
ECP-KLast                                  I   N=          20
           0           0           0           0           0           0
           0           0           0           0           0           0
           0           0           0           0           0           0
           0           0
ECP-LMax                                   I   N=           2
           0           0
ECP-LPSkip                                 I   N=           2
           1           1
ECP-RNFroz                                 R   N=           2
  0.00000000E+00  0.00000000E+00
ECP-NLP                                    I                0
ECP-CLP1                                   R      0.000000000000000E+00
ECP-CLP2                                   R      0.000000000000000E+00
ECP-ZLP                                    R      0.000000000000000E+00
MxBond                                     I                1
NBond                                      I   N=           2
           0           0
IBond                                      I   N=           2
           0           0
RBond                                      R   N=           2
  0.00000000E+00  0.00000000E+00
Virial Ratio                               R      2.000014116054456E+00
SCF Energy                                 R     -2.086669893077688E+03
Total Energy                               R     -2.086669893077688E+03
S**2                                       R      5.674569458496531E+00
S**2 after annihilation                    R      1.770799823535780E+01
RMS Density                                R      1.813221425799566E-09
External E-field                           R   N=          35
  0.00000000E+00  0.00000000E+00  0.00000000E+00  0.00000000E+00  0.00000000E+00
  0.00000000E+00  0.00000000E+00  0.00000000E+00  0.00000000E+00  0.00000000E+00
  0.00000000E+00  0.00000000E+00  0.00000000E+00  0.00000000E+00  0.00000000E+00
  0.00000000E+00  0.00000000E+00  0.00000000E+00  0.00000000E+00  0.00000000E+00
  0.00000000E+00  0.00000000E+00  0.00000000E+00  0.00000000E+00  0.00000000E+00
  0.00000000E+00  0.00000000E+00  0.00000000E+00  0.00000000E+00  0.00000000E+00
  0.00000000E+00  0.00000000E+00  0.00000000E+00  0.00000000E+00  0.00000000E+00
IOpCl                                      I                0
IROHF                                      I                0
Alpha Orbital Energies                     R   N=          90
  2.00000000E+00  2.00000000E+00  2.00000000E+00  2.00000000E+00  2.00000000E+00
  2.00000000E+00  2.00000000E+00  2.00000000E+00  2.00000000E+00  2.00000000E+00
  2.00000000E+00  2.00000000E+00  2.00000000E+00  2.00000000E+00  2.00000000E+00
  2.00000000E+00  2.00000000E+00  2.00000000E+00  1.65315963E+00  1.07177393E+00
  1.06815497E+00  1.06815496E+00  1.01506946E+00  1.01506945E+00  9.84930802E-01
  9.84930797E-01  9.31849412E-01  9.31849401E-01  9.28431177E-01  3.46626013E-01
  0.00000000E+00  0.00000000E+00  0.00000000E+00  0.00000000E+00  0.00000000E+00
  0.00000000E+00  0.00000000E+00  0.00000000E+00  0.00000000E+00  0.00000000E+00
  0.00000000E+00  0.00000000E+00  0.00000000E+00  0.00000000E+00  0.00000000E+00
  0.00000000E+00  0.00000000E+00  0.00000000E+00  0.00000000E+00  0.00000000E+00
  0.00000000E+00  0.00000000E+00  0.00000000E+00  0.00000000E+00  0.00000000E+00
  0.00000000E+00  0.00000000E+00  0.00000000E+00  0.00000000E+00  0.00000000E+00
  0.00000000E+00  0.00000000E+00  0.00000000E+00  0.00000000E+00  0.00000000E+00
  0.00000000E+00  0.00000000E+00  0.00000000E+00  0.00000000E+00  0.00000000E+00
  0.00000000E+00  0.00000000E+00  0.00000000E+00  0.00000000E+00  0.00000000E+00
  0.00000000E+00  0.00000000E+00  0.00000000E+00  0.00000000E+00  0.00000000E+00
  0.00000000E+00  0.00000000E+00  0.00000000E+00  0.00000000E+00  0.00000000E+00
  0.00000000E+00  0.00000000E+00  0.00000000E+00  0.00000000E+00  0.00000000E+00
Alpha MO coefficients                      R   N=        8100
  6.91845783E-01  4.81920883E-03 -1.62480038E-03  1.12939368E-03 -5.12927537E-04
  1.55642806E-04  2.58540899E-14 -4.36895333E-14  2.64380506E-06 -5.61564765E-14
  2.44379712E-14 -2.12740642E-05  5.84463741E-14 -2.26172427E-14  7.66098899E-05
 -6.53067962E-06 -2.12080740E-14 -5.48096177E-14  6.81132827E-14 -7.73965124E-16
  3.22358726E-05  3.80344843E-14  5.82789704E-14 -2.20867264E-14 -4.36906965E-16
 -1.41264757E-04 -3.16002442E-14  9.23621154E-16  1.56002684E-14 -7.51047182E-14
 -7.16388610E-15  1.91996727E-14 -2.48502179E-04 -2.41709816E-05  6.72871793E-15
  3.13577055E-15 -7.89438689E-15 -1.37438522E-14 -7.52547177E-06  4.68568398E-15
  4.92997757E-14 -2.92388100E-14  2.23459289E-14 -1.66102243E-14  2.94790137E-14
 -7.19014756E-01 -5.00881342E-03  1.68647802E-03 -1.16902972E-03  5.25386929E-04
 -1.61172648E-04 -3.85474037E-15 -3.46811458E-14  2.59387313E-06  9.55881513E-14
 -4.76321266E-14 -2.12912533E-05 -1.61469658E-13  4.72422215E-14  7.65595084E-05
  6.67970243E-06  1.35561010E-14  2.88223441E-14 -5.45763900E-14 -3.85857338E-15
 -3.26801540E-05 -8.05555915E-14  1.06948397E-14  7.88902476E-14 -4.47768894E-14
  1.41592874E-04  1.21384096E-13  8.65454948E-14 -4.92279620E-14 -3.50190051E-14
  1.11715327E-13  5.00470489E-14 -2.47829310E-04  2.30644495E-05 -6.70479664E-14
 -2.55453516E-14 -4.45996254E-15 -5.12126384E-14 -7.47605702E-06  3.49282392E-14
  9.03020297E-15  5.41220309E-15 -2.35664548E-14  6.20419969E-14 -7.14253710E-14
  7.19017294E-01  5.01764554E-03 -1.63332066E-03  1.05126625E-03 -3.33501128E-04
  1.46630843E-04  1.95759977E-14 -7.42674382E-14 -1.24576071E-06 -3.22037544E-14
  1.44783977E-13 -8.56268813E-07  5.15940882E-14 -2.09508033E-13  1.66722673E-07
 -3.99652627E-06  4.64512892E-15  1.88209170E-14  4.77744139E-14 -3.77467344E-14
  1.21606563E-05 -4.36774652E-14  6.32295512E-15 -5.04612225E-14  7.29040447E-14
 -1.12429207E-05  2.40715251E-14 -3.03791752E-14 -3.64028190E-14 -1.22591290E-13
 -6.83586175E-14  1.58425103E-13  1.26918652E-05  2.82759073E-05 -4.99700502E-14
  4.41074198E-14 -1.83716669E-14  1.12395089E-13  1.13859281E-06 -1.52547167E-14
  5.11348352E-14  3.88107566E-15 -3.05787980E-14 -4.04827189E-14 -6.09844421E-15
  6.91848420E-01  4.82838779E-03 -1.56955553E-03  1.00700562E-03 -3.13506355E-04
  1.40529944E-04 -3.28628874E-14  5.68123204E-14  1.34663279E-06  5.35840741E-14
 -2.89262355E-14  3.65858492E-08 -6.66362502E-14 -8.93300396E-15  2.78285633E-06
 -3.74213455E-06 -2.64835083E-15 -1.43707254E-14 -2.87213814E-14  5.05129771E-14
  1.09105713E-05 -5.37029882E-14 -3.16239747E-14  6.25316713E-14 -6.48587305E-14
 -5.79594397E-06 -2.61412826E-14 -3.94135371E-16 -9.21407321E-14  1.61724305E-13
  3.48917093E-14  5.34191873E-14 -2.22497001E-05  2.91855180E-05 -8.25532139E-14
  1.09335990E-13  1.35951485E-13 -5.66004277E-14 -1.42747666E-06 -2.88200486E-14
  1.35969837E-14 -1.93936203E-14 -2.98972820E-14 -3.32434930E-14  6.23591399E-14
 -2.19582481E-01  7.29958886E-01  2.35186084E-02 -6.49402877E-03  2.36501455E-03
 -6.87756902E-04  9.32256219E-13 -3.70175655E-12 -1.69632767E-04  2.38682282E-13
 -8.09692102E-13  6.50169306E-05 -9.04372358E-14  2.32436458E-13 -2.95951463E-04
  2.93632601E-05 -1.75041261E-13  1.98419348E-13  1.33336632E-12  1.09291542E-12
 -1.23429290E-04  1.83883753E-13 -2.04409831E-14 -3.40376070E-12 -1.73811813E-12
  5.63561757E-04 -4.47218129E-14  1.28227667E-13  1.01895694E-14  4.33474196E-14
 -1.87397175E-14  3.11549798E-13  1.00847763E-03  1.07025355E-04  7.04373574E-15
  5.80301380E-14 -5.76689205E-13 -3.11422674E-13  2.65031357E-05 -2.94467908E-14
 -7.80988454E-14  6.69514357E-14  7.20251599E-14 -6.10126877E-15  3.07159738E-14
  2.21566037E-01 -7.36552228E-01 -2.37287563E-02  6.54903586E-03 -2.38012802E-03
  6.92276386E-04  2.77458191E-12 -6.48734124E-12 -1.70982562E-04  2.23436947E-13
 -9.20665090E-13  6.47579955E-05  1.63152095E-14  2.27323511E-13 -2.95985282E-04
 -2.96933252E-05 -2.73639771E-13 -1.92283448E-13 -1.34063310E-12 -9.88931902E-13
  1.23870572E-04  3.53013590E-13  5.13984973E-14  3.38554935E-12  1.82752219E-12
 -5.64058185E-04 -2.20549315E-14 -1.52175035E-13  5.19451718E-14 -1.61407469E-13
 -8.50403827E-14  4.23518387E-13  1.00792712E-03 -1.05848715E-04  1.30902036E-13
 -5.63161735E-14  5.38446517E-13  3.44776903E-13  2.64455674E-05 -1.38220773E-14
  6.40722906E-14  1.02181436E-13 -3.51182392E-14  1.76926928E-14  3.39468645E-14
 -2.21581950E-01  7.36538982E-01  2.34766653E-02 -6.14662630E-03  1.69140123E-03
 -5.05718550E-04  9.32552384E-13 -3.75393027E-12 -1.50754696E-04  2.73599876E-13
 -7.85313507E-13 -2.84827033E-05 -1.36533815E-13  1.74873471E-13 -5.09535666E-06
  3.68359928E-05 -6.34443851E-14 -1.98890275E-13  2.15082778E-12  1.30391403E-12
 -4.96343995E-05  3.19778253E-13 -3.17805248E-13 -2.74684472E-12 -1.57463549E-12
  5.77396513E-05 -7.77933302E-14  5.61382853E-15  1.55097125E-13  2.50919319E-13
 -4.38681288E-14  3.70761453E-13 -5.66977272E-05 -1.30372134E-04  2.05222356E-13
 -4.13686272E-13 -2.58486490E-13 -2.35617535E-13 -6.28292578E-06  7.55391386E-14
 -8.68572110E-14  1.37878275E-13  7.20659553E-14  3.99091371E-14 -6.55662830E-14
 -2.19598538E-01  7.29945520E-01  2.32642403E-02 -6.08798434E-03  1.67006697E-03
 -4.99514251E-04 -2.71971584E-12  6.40422356E-12  1.49224373E-04 -3.37175339E-13
  1.03797793E-12  2.90663622E-05  7.96023891E-14 -4.02738328E-13  2.43394225E-06
  3.65704140E-05  3.84063536E-13 -3.12073452E-13  2.13022331E-12  1.33479492E-12
 -4.85225622E-05 -2.10408530E-13 -4.02745036E-13 -2.66551400E-12 -1.46708219E-12
  5.26698091E-05 -1.74567004E-15 -9.84641160E-14  4.76854450E-14  1.41436645E-14
  1.57081239E-13 -3.27212475E-13  6.57634969E-05 -1.31329259E-04  7.88758168E-14
 -3.48506725E-13 -2.02974784E-13 -1.57633203E-13  6.52098763E-06  4.69048345E-14
 -1.49958169E-14 -1.72462317E-13  4.85396827E-14 -1.14169100E-13  4.76164533E-15
 -2.67820657E-05  6.64924274E-05 -5.67676648E-05  2.22259735E-04 -7.35571658E-04
 -1.22361395E-04 -2.61764057E-09 -3.94424465E-09  3.57344146E-01 -5.68340585E-11
 -8.58724646E-11  7.80388933E-03  1.08473898E-11  1.71682259E-11 -1.52413124E-03
 -6.71653005E-06  3.64379498E-14 -7.81273112E-14  5.82401363E-13  1.11424792E-13
 -9.13262623E-05  1.10875722E-13  2.72165039E-13 -2.77691367E-13 -3.00671098E-13
 -1.33811000E-04 -1.07894531E-13 -1.94047224E-13 -1.86722335E-14 -5.40448747E-14
 -2.32917095E-12 -5.37854803E-12 -1.09009713E-04  7.28455520E-05  9.54272835E-13
 -2.87247583E-13  2.33772850E-14  2.82349948E-15 -1.62301662E-05 -1.66453894E-14
 -3.99481936E-14 -2.18850593E-13 -1.03582913E-13  7.33996153E-14 -3.91634329E-14
 -6.22402138E-05  2.34412421E-04  7.00008862E-05 -1.19529573E-04 -6.27200632E-05
  3.81733184E-04 -4.64697410E-09 -1.05103752E-09 -9.25588483E-01 -1.01326760E-10
 -2.27276970E-11 -2.02789188E-02  2.02360135E-11  3.99608017E-12  4.29621343E-03
 -2.44366145E-06  3.87249421E-13 -1.46662257E-12  1.41518790E-12  5.11865093E-13
 -1.35256842E-04 -3.22778203E-13  3.80046614E-13 -8.76252982E-13 -3.98551615E-13
  2.69861551E-04  4.34170040E-13 -4.14429486E-13 -1.09671839E-13  4.74582758E-15
 -5.76961214E-12 -9.65278320E-14 -1.64569054E-03  2.55925542E-04 -1.44318426E-13
 -7.83686890E-13 -2.73798135E-14 -9.77666754E-14 -6.52645805E-06  1.19114451E-13
  1.34035957E-13  5.95418385E-13  2.65235982E-13  3.78861595E-14  2.07110759E-14
 -5.97414234E-05  2.56193342E-04  1.46033028E-04 -3.63075829E-04  5.82750781E-04
  6.26486002E-04 -6.54945685E-09 -1.06476046E-08  9.25584744E-01 -1.42974420E-10
 -2.32286850E-10  2.03017401E-02  2.91058850E-11  4.67331786E-11 -4.41825505E-03
  2.79498372E-06 -3.26023747E-14 -1.92331658E-13  1.34480407E-12  6.11393160E-13
 -9.97712425E-05 -1.28819914E-14  3.92265977E-13 -9.52394456E-13 -3.25796622E-13
  4.85814169E-04 -2.79195984E-13 -6.04645447E-14 -7.57197278E-14  1.37649064E-13
 -9.60311348E-12 -1.45245505E-11  2.32110572E-03  2.79480267E-04 -1.84550992E-12
 -1.93169094E-12 -1.40977814E-13 -1.24514470E-13  2.35396681E-05 -6.84796805E-14
 -1.73488981E-13 -5.81587068E-13 -3.05000327E-13  1.03005607E-13 -7.32634658E-14
  2.03111484E-05 -1.22914781E-04 -1.40171313E-04  4.08578387E-04 -9.36339230E-04
 -5.11602685E-04  1.94511390E-09  2.97325935E-10  3.57334461E-01  4.26873965E-11
  6.88141497E-12  7.86300139E-03 -9.30145699E-12 -2.67084382E-12 -1.84024555E-03
 -6.85221463E-06 -1.46521328E-13  5.51758582E-13 -5.10966752E-13 -2.95736299E-13
 -5.89493220E-07 -1.01598908E-16 -4.18773211E-13  4.14639796E-13 -1.12927918E-13
 -4.25553207E-04 -2.27738632E-13  1.99152736E-13  1.23414879E-13  2.32481270E-14
  4.37511979E-12  3.49854532E-12  1.64046264E-03 -1.33857442E-04 -2.34782150E-12
 -3.52965589E-12  1.00673668E-13 -5.38529577E-15  2.78377350E-05 -6.07023674E-15
  6.69978061E-14 -2.43315685E-13 -1.18679613E-13 -1.39852269E-13 -1.79874809E-14
  2.48633922E-13 -1.25663936E-12 -1.29189236E-12  2.78621476E-12 -4.85095788E-12
 -4.31639274E-12 -6.67445678E-01 -1.04100331E-01 -6.02604622E-09 -1.45923053E-02
 -2.27593624E-03 -1.32297807E-10  3.02173864E-03  4.71295273E-04  2.90380920E-11
 -9.38208267E-14  1.53892876E-05  2.40024029E-06 -2.14817694E-13  6.81176484E-13
  6.61731011E-13 -8.49165804E-06 -1.32442936E-06 -8.64012582E-14 -1.50700710E-13
 -3.62797094E-12 -1.40237562E-05 -2.18726057E-06  1.39646906E-14  1.99023050E-13
 -1.10718279E-03 -1.72685361E-04 -1.64345850E-11 -1.85718440E-12 -3.47290703E-04
 -5.41663274E-05  6.05477110E-14 -9.79484983E-14 -2.18648068E-13 -7.46077519E-06
 -1.16364408E-06 -6.92418390E-14 -4.93344453E-14 -1.65431907E-13 -1.13874907E-13
 -8.12809070E-13  3.14183134E-12  8.83850961E-13 -3.08037500E-12  6.77708844E-12
  4.27081074E-12  7.18027771E-01  1.11989550E-01 -3.72734610E-09  1.56935890E-02
  2.44770195E-03 -8.17647712E-11 -3.23761049E-03 -5.04964510E-04  1.84133969E-11
  9.74688354E-14  1.68327895E-05  2.62538146E-06 -6.80874543E-13  7.96605639E-13
 -2.56081024E-13 -7.00302831E-06 -1.09224986E-06  1.64153826E-13 -2.66503309E-13
  3.38691263E-12 -1.53760337E-05 -2.39817343E-06 -6.57603051E-14  1.40849809E-13
  1.16280317E-03  1.81360395E-04 -1.36569722E-11  1.20807266E-12 -3.40327117E-04
 -5.30802265E-05  1.71830374E-14 -4.23961145E-14 -2.73383399E-13  7.21311173E-06
  1.12501629E-06 -9.60437782E-14  1.31819608E-13  1.77745123E-13  1.07742833E-13
  1.82190765E-12 -6.46112231E-12  4.50184134E-13  2.76636870E-12 -4.16050022E-12
 -5.75546200E-12  1.04100321E-01 -6.67445562E-01 -6.80844954E-09  2.27593602E-03
 -1.45923028E-02 -1.49264453E-10 -4.71295231E-04  3.02173814E-03  3.24628577E-11
 -9.68698983E-13 -2.40023954E-06  1.53892824E-05 -6.33775955E-13 -8.67957557E-14
  6.35808838E-13  1.32442972E-06 -8.49166113E-06  1.07785902E-13 -4.41258713E-14
 -3.39163588E-12  2.18726043E-06 -1.40237538E-05 -2.19485424E-13  3.78309222E-14
  1.72685350E-04 -1.10718266E-03 -1.53545255E-11 -1.96698704E-12  5.41663286E-05
 -3.47290716E-04  4.05508065E-14  1.37677546E-14 -7.07813810E-14  1.16364437E-06
 -7.46077634E-06  2.74036837E-14  8.41813029E-14  6.96826319E-14 -1.08345151E-14
  2.44506732E-12 -7.89194274E-12  2.13452084E-12 -1.80812882E-12  4.57737203E-12
  6.07916442E-13 -1.11989560E-01  7.18027879E-01 -3.31775095E-10 -2.44770215E-03
  1.56935913E-02 -7.67216331E-12  5.04964549E-04 -3.23761095E-03  2.68911810E-12
 -1.01747865E-12 -2.62538124E-06  1.68327904E-05 -9.52546835E-13 -8.10461973E-13
  3.01251227E-13  1.09224965E-06 -7.00302482E-06  1.88520453E-13  1.43227001E-13
  2.09521625E-12  2.39817378E-06 -1.53760373E-05 -1.83396651E-13 -2.04561363E-13
 -1.81360405E-04  1.16280328E-03 -7.24788354E-12  3.58528008E-13  5.30802250E-05
 -3.40327099E-04  2.77660137E-14 -2.45504879E-14 -2.28841199E-13 -1.12501655E-06
  7.21311184E-06  6.83735180E-14  1.46875267E-13 -9.01478008E-14  1.02802757E-14
 -2.92464033E-13  1.12180493E-12  4.99578847E-13 -5.80666734E-13 -1.32628448E-12
  2.49759192E-12  7.18117044E-01  1.11492446E-01  6.29587970E-09  1.56372025E-02
  2.42777967E-03  1.37831592E-10 -3.07107198E-03 -4.76804344E-04 -2.89302171E-11
  6.64316486E-14 -2.03576218E-05 -3.16065609E-06  1.40537239E-13 -7.33305353E-13
 -9.86037023E-13 -2.01073561E-05 -3.12180065E-06  3.88929784E-14  1.21044354E-13
  1.54747522E-12  1.90594143E-05  2.95910091E-06  3.19671564E-14 -2.62341306E-13
  8.03274295E-04  1.24713675E-04  1.02466763E-11  1.74588986E-12 -8.28272462E-05
 -1.28594817E-05 -1.49849977E-14  1.05238941E-13  2.15738151E-14 -3.12444780E-06
 -4.85091434E-07  1.09979659E-13 -7.16729604E-14  8.50230056E-14  7.43809476E-14
 -7.79580210E-13  2.55655912E-12 -1.41674539E-13  1.03648483E-12 -4.58264541E-12
 -4.47680116E-13  6.67530361E-01  1.03638530E-01 -3.54412952E-09  1.45313979E-02
  2.25609621E-03 -7.74279690E-11 -2.84252933E-03 -4.41321592E-04  1.54735405E-11
 -1.34744293E-13  1.91812816E-05  2.97802165E-06 -5.67500598E-13  7.77707910E-13
 -6.93193926E-13  2.06730662E-05  3.20963084E-06  1.53601661E-13 -1.67093607E-13
 -4.98863874E-13 -1.79859206E-05 -2.79243392E-06  3.46449108E-14  1.00579066E-13
  7.20392105E-04  1.11845668E-04 -1.44431802E-12  7.29279082E-13  1.07933683E-04
  1.67574214E-05 -3.64040326E-14 -3.43274643E-14 -1.53883241E-14 -3.66021828E-06
 -5.68273327E-07 -8.12407721E-14  1.63891334E-14  6.79126553E-14  7.15219337E-14
 -1.87933252E-12  6.62407236E-12  1.44055612E-13 -1.67064436E-12  2.13687015E-12
  4.25564143E-12 -1.11492455E-01  7.18117152E-01  7.50733593E-09 -2.42777987E-03
  1.56372049E-02  1.64755995E-10  4.76804386E-04 -3.07107246E-03 -3.55481392E-11
  7.18849559E-13  3.16065630E-06 -2.03576219E-05  6.44067821E-13  6.53214887E-14
 -1.03712749E-12  3.12180076E-06 -2.01073545E-05 -1.14215947E-13  3.19407056E-14
  3.37308822E-12 -2.95910099E-06  1.90594173E-05  1.42453697E-13 -7.16340478E-14
 -1.24713690E-04  8.03274473E-04  1.61719928E-11  2.19302166E-12  1.28594768E-05
 -8.28271902E-05 -8.22160780E-14 -1.62161446E-14  6.05870660E-14  4.85091040E-07
 -3.12444587E-06 -1.35171082E-13 -3.50587018E-14 -7.90862896E-14  1.14789847E-13
  2.13045393E-12 -7.50606684E-12 -4.45219404E-13  2.48983969E-12 -6.79564440E-12
 -2.87294821E-12 -1.03638520E-01  6.67530245E-01 -8.40185253E-11 -2.25609599E-03
  1.45313954E-02 -1.48009761E-12  4.41321546E-04 -2.84252881E-03 -1.06365658E-12
 -6.26373434E-13 -2.97802143E-06  1.91812766E-05 -8.84849104E-13 -7.28566394E-13
 -1.31121640E-13 -3.20963117E-06  2.06730672E-05  2.02052431E-13  1.17168878E-13
 -2.35923967E-12  2.79243359E-06 -1.79859188E-05 -2.40561798E-13 -1.16501026E-13
 -1.11845652E-04  7.20391917E-04  7.12690194E-12 -2.10545180E-13 -1.67574261E-05
  1.07933738E-04  5.80144917E-14 -5.57387339E-14  1.83553965E-13  5.68273146E-07
 -3.66021875E-06  2.53543725E-14  8.23191630E-14 -8.35460120E-14  1.11734859E-13
  7.91452420E-02 -3.13646081E-01  4.48788165E-01  3.30987828E-01  1.03181294E-02
 -3.32815940E-03 -3.79918182E-12  1.43481108E-11  4.15035774E-04  6.75007686E-12
 -2.81252929E-11 -7.93958309E-04  1.03375616E-11 -3.01610817E-11 -9.94217638E-04
  1.49346625E-04  1.20156583E-11  8.16841989E-13 -2.54307206E-10 -1.27963973E-10
 -1.59520022E-04  8.88653787E-12 -1.25484323E-12 -1.80731148E-10 -8.46715053E-11
  4.28817613E-04  6.15068529E-12 -2.69337835E-12 -1.37373880E-10 -5.47076556E-11
 -8.74063228E-13  2.56769060E-12 -7.98804233E-05 -4.82951063E-04  3.69064012E-14