[Molden Format]
[N_ATOMS]
                    2
[ATOMS] (AU)
CR1         1     24           0.00000000      0.00000000      0.00000000
CR2         2     24           0.00000000      0.00000000      5.66917839
[5D]
[7F]
[CHARGE] (MULLIKEN)
  -4.6702879785698315E-007
   4.6702770006845640E-007
[GTO] (AU)
   1
   s   8
  0.254477807E+06  0.242904776E-03
  0.381317971E+05  0.188435236E-02
  0.867529306E+04  0.980095844E-02
  0.245500998E+04  0.398250087E-01
  0.799162178E+03  0.129405437E+00
  0.286900215E+03  0.306290018E+00
  0.111254132E+03  0.434628350E+00
  0.438641526E+02  0.224695629E+00
   s   4
  0.279326692E+03 -0.243633579E-01
  0.862747324E+02 -0.115114954E+00
  0.135557561E+02  0.550922663E+00
  0.569781128E+01  0.536113547E+00
   s   2
  0.856365826E+01 -0.371230176E+00
  0.139882968E+01  0.116811695E+01
   s   1
  0.572881711E+00  0.100000000E+01
   s   1
  0.900961713E-01  0.100000000E+01
   s   1
  0.341258851E-01  0.100000000E+01
   p   6
  0.130643989E+04  0.282928007E-02
  0.309253114E+03  0.227766292E-01
  0.989962740E+02  0.105645619E+00
  0.367569165E+02  0.299499449E+00
  0.145666571E+02  0.477062454E+00
  0.587399374E+01  0.276542344E+00
   p   3
  0.228909997E+02 -0.194121061E-01
  0.308550018E+01  0.386188758E+00
  0.121323291E+01  0.676239089E+00
   p   1
  0.449316807E+00  0.100000000E+01
   p   1
  0.120675000E+00  0.100000000E+01
   d   4
  0.437200745E+02  0.220932593E-01
  0.123912427E+02  0.128014388E+00
  0.426394420E+01  0.386529103E+00
  0.155252218E+01  0.641033014E+00
   d   1
  0.537619295E+00  0.100000000E+01
   d   1
  0.164931731E+00  0.100000000E+01
   d   1
  0.510000000E-01  0.100000000E+01
   f   1
  0.114700000E+01  0.100000000E+01
 
   2
   s   8
  0.254477807E+06  0.242904776E-03
  0.381317971E+05  0.188435236E-02
  0.867529306E+04  0.980095844E-02
  0.245500998E+04  0.398250087E-01
  0.799162178E+03  0.129405437E+00
  0.286900215E+03  0.306290018E+00
  0.111254132E+03  0.434628350E+00
  0.438641526E+02  0.224695629E+00
   s   4
  0.279326692E+03 -0.243633579E-01
  0.862747324E+02 -0.115114954E+00
  0.135557561E+02  0.550922663E+00
  0.569781128E+01  0.536113547E+00
   s   2
  0.856365826E+01 -0.371230176E+00
  0.139882968E+01  0.116811695E+01
   s   1
  0.572881711E+00  0.100000000E+01
   s   1
  0.900961713E-01  0.100000000E+01
   s   1
  0.341258851E-01  0.100000000E+01
   p   6
  0.130643989E+04  0.282928007E-02
  0.309253114E+03  0.227766292E-01
  0.989962740E+02  0.105645619E+00
  0.367569165E+02  0.299499449E+00
  0.145666571E+02  0.477062454E+00
  0.587399374E+01  0.276542344E+00
   p   3
  0.228909997E+02 -0.194121061E-01
  0.308550018E+01  0.386188758E+00
  0.121323291E+01  0.676239089E+00
   p   1
  0.449316807E+00  0.100000000E+01
   p   1
  0.120675000E+00  0.100000000E+01
   d   4
  0.437200745E+02  0.220932593E-01
  0.123912427E+02  0.128014388E+00
  0.426394420E+01  0.386529103E+00
  0.155252218E+01  0.641033014E+00
   d   1
  0.537619295E+00  0.100000000E+01
   d   1
  0.164931731E+00  0.100000000E+01
   d   1
  0.510000000E-01  0.100000000E+01
   f   1
  0.114700000E+01  0.100000000E+01
 
[MO]
Sym=     1a  
Ene=  -220.3800
Spin= Alpha
Occup=    2.00000
   1         0.69184578
   2         0.00481921
   3        -0.00162480
   4         0.00112939
   5        -0.00051293
   6         0.00015564
   7         0.00000000
   8        -0.00000000
   9         0.00000264
  10        -0.00000000
  11         0.00000000
  12        -0.00002127
  13         0.00000000
  14        -0.00000000
  15         0.00007661
  16        -0.00000000
  17         0.00000000
  18        -0.00024850
  19        -0.00000653
  20        -0.00000000
  21        -0.00000000
  22         0.00000000
  23         0.00000000
  24         0.00003224
  25         0.00000000
  26         0.00000000
  27        -0.00000000
  28         0.00000000
  29        -0.00014126
  30        -0.00000000
  31         0.00000000
  32         0.00000000
  33        -0.00000000
  34        -0.00002417
  35         0.00000000
  36         0.00000000
  37        -0.00000000
  38        -0.00000000
  39        -0.00000753
  40         0.00000000
  41         0.00000000
  42        -0.00000000
  43         0.00000000
  44        -0.00000000
  45         0.00000000
  46        -0.71901476
  47        -0.00500881
  48         0.00168648
  49        -0.00116903
  50         0.00052539
  51        -0.00016117
  52        -0.00000000
  53        -0.00000000
  54         0.00000259
  55         0.00000000
  56        -0.00000000
  57        -0.00002129
  58        -0.00000000
  59         0.00000000
  60         0.00007656
  61         0.00000000
  62         0.00000000
  63        -0.00024783
  64         0.00000668
  65         0.00000000
  66         0.00000000
  67        -0.00000000
  68        -0.00000000
  69        -0.00003268
  70        -0.00000000
  71         0.00000000
  72         0.00000000
  73        -0.00000000
  74         0.00014159
  75         0.00000000
  76         0.00000000
  77        -0.00000000
  78        -0.00000000
  79         0.00002306
  80        -0.00000000
  81        -0.00000000
  82        -0.00000000
  83        -0.00000000
  84        -0.00000748
  85         0.00000000
  86         0.00000000
  87         0.00000000
  88        -0.00000000
  89         0.00000000
  90        -0.00000000
Sym=     2a  
Ene=  -220.3800
Spin= Alpha
Occup=    2.00000
   1         0.71901729
   2         0.00501765
   3        -0.00163332
   4         0.00105127
   5        -0.00033350
   6         0.00014663
   7         0.00000000
   8        -0.00000000
   9        -0.00000125
  10        -0.00000000
  11         0.00000000
  12        -0.00000086
  13         0.00000000
  14        -0.00000000
  15         0.00000017
  16        -0.00000000
  17         0.00000000
  18         0.00001269
  19        -0.00000400
  20         0.00000000
  21         0.00000000
  22         0.00000000
  23        -0.00000000
  24         0.00001216
  25        -0.00000000
  26         0.00000000
  27        -0.00000000
  28         0.00000000
  29        -0.00001124
  30         0.00000000
  31        -0.00000000
  32        -0.00000000
  33        -0.00000000
  34         0.00002828
  35        -0.00000000
  36         0.00000000
  37        -0.00000000
  38         0.00000000
  39         0.00000114
  40        -0.00000000
  41         0.00000000
  42         0.00000000
  43        -0.00000000
  44        -0.00000000
  45        -0.00000000
  46         0.69184842
  47         0.00482839
  48        -0.00156956
  49         0.00100701
  50        -0.00031351
  51         0.00014053
  52        -0.00000000
  53         0.00000000
  54         0.00000135
  55         0.00000000
  56        -0.00000000
  57         0.00000004
  58        -0.00000000
  59        -0.00000000
  60         0.00000278
  61         0.00000000
  62         0.00000000
  63        -0.00002225
  64        -0.00000374
  65        -0.00000000
  66        -0.00000000
  67        -0.00000000
  68         0.00000000
  69         0.00001091
  70        -0.00000000
  71        -0.00000000
  72         0.00000000
  73        -0.00000000
  74        -0.00000580
  75        -0.00000000
  76        -0.00000000
  77        -0.00000000
  78         0.00000000
  79         0.00002919
  80        -0.00000000
  81         0.00000000
  82         0.00000000
  83        -0.00000000
  84        -0.00000143
  85        -0.00000000
  86         0.00000000
  87        -0.00000000
  88        -0.00000000
  89        -0.00000000
  90         0.00000000
Sym=     3a  
Ene=   -26.2080
Spin= Alpha
Occup=    2.00000
   1        -0.21958248
   2         0.72995889
   3         0.02351861
   4        -0.00649403
   5         0.00236501
   6        -0.00068776
   7         0.00000000
   8        -0.00000000
   9        -0.00016963
  10         0.00000000
  11        -0.00000000
  12         0.00006502
  13        -0.00000000
  14         0.00000000
  15        -0.00029595
  16        -0.00000000
  17         0.00000000
  18         0.00100848
  19         0.00002936
  20        -0.00000000
  21         0.00000000
  22         0.00000000
  23         0.00000000
  24        -0.00012343
  25         0.00000000
  26        -0.00000000
  27        -0.00000000
  28        -0.00000000
  29         0.00056356
  30        -0.00000000
  31         0.00000000
  32         0.00000000
  33         0.00000000
  34         0.00010703
  35         0.00000000
  36         0.00000000
  37        -0.00000000
  38        -0.00000000
  39         0.00002650
  40        -0.00000000
  41        -0.00000000
  42         0.00000000
  43         0.00000000
  44        -0.00000000
  45         0.00000000
  46         0.22156604
  47        -0.73655223
  48        -0.02372876
  49         0.00654904
  50        -0.00238013
  51         0.00069228
  52         0.00000000
  53        -0.00000000
  54        -0.00017098
  55         0.00000000
  56        -0.00000000
  57         0.00006476
  58         0.00000000
  59         0.00000000
  60        -0.00029599
  61        -0.00000000
  62         0.00000000
  63         0.00100793
  64        -0.00002969
  65        -0.00000000
  66        -0.00000000
  67        -0.00000000
  68        -0.00000000
  69         0.00012387
  70         0.00000000
  71         0.00000000
  72         0.00000000
  73         0.00000000
  74        -0.00056406
  75        -0.00000000
  76        -0.00000000
  77         0.00000000
  78        -0.00000000
  79        -0.00010585
  80         0.00000000
  81        -0.00000000
  82         0.00000000
  83         0.00000000
  84         0.00002645
  85        -0.00000000
  86         0.00000000
  87         0.00000000
  88        -0.00000000
  89         0.00000000
  90         0.00000000
Sym=     4a  
Ene=   -26.2080
Spin= Alpha
Occup=    2.00000
   1        -0.22158195
   2         0.73653898
   3         0.02347667
   4        -0.00614663
   5         0.00169140
   6        -0.00050572
   7         0.00000000
   8        -0.00000000
   9        -0.00015075
  10         0.00000000
  11        -0.00000000
  12        -0.00002848
  13        -0.00000000
  14         0.00000000
  15        -0.00000510
  16        -0.00000000
  17         0.00000000
  18        -0.00005670
  19         0.00003684
  20        -0.00000000
  21        -0.00000000
  22         0.00000000
  23         0.00000000
  24        -0.00004963
  25         0.00000000
  26        -0.00000000
  27        -0.00000000
  28        -0.00000000
  29         0.00005774
  30        -0.00000000
  31         0.00000000
  32         0.00000000
  33         0.00000000
  34        -0.00013037
  35         0.00000000
  36        -0.00000000
  37        -0.00000000
  38        -0.00000000
  39        -0.00000628
  40         0.00000000
  41        -0.00000000
  42         0.00000000
  43         0.00000000
  44         0.00000000
  45        -0.00000000
  46        -0.21959854
  47         0.72994552
  48         0.02326424
  49        -0.00608798
  50         0.00167007
  51        -0.00049951
  52        -0.00000000
  53         0.00000000
  54         0.00014922
  55        -0.00000000
  56         0.00000000
  57         0.00002907
  58         0.00000000
  59        -0.00000000
  60         0.00000243
  61         0.00000000
  62        -0.00000000
  63         0.00006576
  64         0.00003657
  65         0.00000000
  66        -0.00000000
  67         0.00000000
  68         0.00000000
  69        -0.00004852
  70        -0.00000000
  71        -0.00000000
  72        -0.00000000
  73        -0.00000000
  74         0.00005267
  75        -0.00000000
  76        -0.00000000
  77         0.00000000
  78         0.00000000
  79        -0.00013133
  80         0.00000000
  81        -0.00000000
  82        -0.00000000
  83        -0.00000000
  84         0.00000652
  85         0.00000000
  86        -0.00000000
  87        -0.00000000
  88         0.00000000
  89        -0.00000000
  90         0.00000000
Sym=     5a  
Ene=   -22.1380
Spin= Alpha
Occup=    2.00000
   1        -0.00002678
   2         0.00006649
   3        -0.00005677
   4         0.00022226
   5        -0.00073557
   6        -0.00012236
   7        -0.00000000
   8        -0.00000000
   9         0.35734415
  10        -0.00000000
  11        -0.00000000
  12         0.00780389
  13         0.00000000
  14         0.00000000
  15        -0.00152413
  16        -0.00000000
  17        -0.00000000
  18        -0.00010901
  19        -0.00000672
  20         0.00000000
  21        -0.00000000
  22         0.00000000
  23         0.00000000
  24        -0.00009133
  25         0.00000000
  26         0.00000000
  27        -0.00000000
  28        -0.00000000
  29        -0.00013381
  30        -0.00000000
  31        -0.00000000
  32        -0.00000000
  33        -0.00000000
  34         0.00007285
  35         0.00000000
  36        -0.00000000
  37         0.00000000
  38         0.00000000
  39        -0.00001623
  40        -0.00000000
  41        -0.00000000
  42        -0.00000000
  43        -0.00000000
  44         0.00000000
  45        -0.00000000
  46        -0.00006224
  47         0.00023441
  48         0.00007000
  49        -0.00011953
  50        -0.00006272
  51         0.00038173
  52        -0.00000000
  53        -0.00000000
  54        -0.92558848
  55        -0.00000000
  56        -0.00000000
  57        -0.02027892
  58         0.00000000
  59         0.00000000
  60         0.00429621
  61        -0.00000000
  62        -0.00000000
  63        -0.00164569
  64        -0.00000244
  65         0.00000000
  66        -0.00000000
  67         0.00000000
  68         0.00000000
  69        -0.00013526
  70        -0.00000000
  71         0.00000000
  72        -0.00000000
  73        -0.00000000
  74         0.00026986
  75         0.00000000
  76        -0.00000000
  77        -0.00000000
  78         0.00000000
  79         0.00025593
  80        -0.00000000
  81        -0.00000000
  82        -0.00000000
  83        -0.00000000
  84        -0.00000653
  85         0.00000000
  86         0.00000000
  87         0.00000000
  88         0.00000000
  89         0.00000000
  90         0.00000000
Sym=     6a  
Ene=   -22.1380
Spin= Alpha
Occup=    2.00000
   1        -0.00005974
   2         0.00025619
   3         0.00014603
   4        -0.00036308
   5         0.00058275
   6         0.00062649
   7        -0.00000001
   8        -0.00000001
   9         0.92558474
  10        -0.00000000
  11        -0.00000000
  12         0.02030174
  13         0.00000000
  14         0.00000000
  15        -0.00441826
  16        -0.00000000
  17        -0.00000000
  18         0.00232111
  19         0.00000279
  20        -0.00000000
  21        -0.00000000
  22         0.00000000
  23         0.00000000
  24        -0.00009977
  25        -0.00000000
  26         0.00000000
  27        -0.00000000
  28        -0.00000000
  29         0.00048581
  30        -0.00000000
  31        -0.00000000
  32        -0.00000000
  33         0.00000000
  34         0.00027948
  35        -0.00000000
  36        -0.00000000
  37        -0.00000000
  38        -0.00000000
  39         0.00002354
  40        -0.00000000
  41        -0.00000000
  42        -0.00000000
  43        -0.00000000
  44         0.00000000
  45        -0.00000000
  46         0.00002031
  47        -0.00012291
  48        -0.00014017
  49         0.00040858
  50        -0.00093634
  51        -0.00051160
  52         0.00000000
  53         0.00000000
  54         0.35733446
  55         0.00000000
  56         0.00000000
  57         0.00786300
  58        -0.00000000
  59        -0.00000000
  60        -0.00184025
  61         0.00000000
  62         0.00000000
  63         0.00164046
  64        -0.00000685
  65        -0.00000000
  66         0.00000000
  67        -0.00000000
  68        -0.00000000
  69        -0.00000059
  70         0.00000000
  71        -0.00000000
  72         0.00000000
  73        -0.00000000
  74        -0.00042555
  75        -0.00000000
  76         0.00000000
  77         0.00000000
  78         0.00000000
  79        -0.00013386
  80        -0.00000000
  81        -0.00000000
  82         0.00000000
  83        -0.00000000
  84         0.00002784
  85        -0.00000000
  86         0.00000000
  87        -0.00000000
  88        -0.00000000
  89        -0.00000000
  90        -0.00000000
Sym=     7a  
Ene=   -22.1380
Spin= Alpha
Occup=    2.00000
   1         0.00000000
   2        -0.00000000
   3        -0.00000000
   4         0.00000000
   5        -0.00000000
   6        -0.00000000
   7        -0.66744568
   8        -0.10410033
   9        -0.00000001
  10        -0.01459231
  11        -0.00227594
  12        -0.00000000
  13         0.00302174
  14         0.00047130
  15         0.00000000
  16        -0.00110718
  17        -0.00017269
  18        -0.00000000
  19        -0.00000000
  20         0.00001539
  21         0.00000240
  22        -0.00000000
  23         0.00000000
  24         0.00000000
  25        -0.00000849
  26        -0.00000132
  27        -0.00000000
  28        -0.00000000
  29        -0.00000000
  30        -0.00001402
  31        -0.00000219
  32         0.00000000
  33         0.00000000
  34        -0.00000000
  35        -0.00034729
  36        -0.00005417
  37         0.00000000
  38        -0.00000000
  39        -0.00000000
  40        -0.00000746
  41        -0.00000116
  42        -0.00000000
  43        -0.00000000
  44        -0.00000000
  45        -0.00000000
  46        -0.00000000
  47         0.00000000
  48         0.00000000
  49        -0.00000000
  50         0.00000000
  51         0.00000000
  52         0.71802777
  53         0.11198955
  54        -0.00000000
  55         0.01569359
  56         0.00244770
  57        -0.00000000
  58        -0.00323761
  59        -0.00050496
  60         0.00000000
  61         0.00116280
  62         0.00018136
  63        -0.00000000
  64         0.00000000
  65         0.00001683
  66         0.00000263
  67        -0.00000000
  68         0.00000000
  69        -0.00000000
  70        -0.00000700
  71        -0.00000109
  72         0.00000000
  73        -0.00000000
  74         0.00000000
  75        -0.00001538
  76        -0.00000240
  77        -0.00000000
  78         0.00000000
  79         0.00000000
  80        -0.00034033
  81        -0.00005308
  82         0.00000000
  83        -0.00000000
  84        -0.00000000
  85         0.00000721
  86         0.00000113
  87        -0.00000000
  88         0.00000000
  89         0.00000000
  90         0.00000000
Sym=     8a  
Ene=   -22.1380
Spin= Alpha
Occup=    2.00000
   1         0.00000000
   2        -0.00000000
   3         0.00000000
   4         0.00000000
   5        -0.00000000
   6        -0.00000000
   7         0.10410032
   8        -0.66744556
   9        -0.00000001
  10         0.00227594
  11        -0.01459230
  12        -0.00000000
  13        -0.00047130
  14         0.00302174
  15         0.00000000
  16         0.00017269
  17        -0.00110718
  18        -0.00000000
  19        -0.00000000
  20        -0.00000240
  21         0.00001539
  22        -0.00000000
  23        -0.00000000
  24         0.00000000
  25         0.00000132
  26        -0.00000849
  27         0.00000000
  28        -0.00000000
  29        -0.00000000
  30         0.00000219
  31        -0.00001402
  32        -0.00000000
  33         0.00000000
  34        -0.00000000
  35         0.00005417
  36        -0.00034729
  37         0.00000000
  38         0.00000000
  39        -0.00000000
  40         0.00000116
  41        -0.00000746
  42         0.00000000
  43         0.00000000
  44         0.00000000
  45        -0.00000000
  46         0.00000000
  47        -0.00000000
  48         0.00000000
  49        -0.00000000
  50         0.00000000
  51         0.00000000
  52        -0.11198956
  53         0.71802788
  54        -0.00000000
  55        -0.00244770
  56         0.01569359
  57        -0.00000000
  58         0.00050496
  59        -0.00323761
  60         0.00000000
  61        -0.00018136
  62         0.00116280
  63        -0.00000000
  64        -0.00000000
  65        -0.00000263
  66         0.00001683
  67        -0.00000000
  68        -0.00000000
  69         0.00000000
  70         0.00000109
  71        -0.00000700
  72         0.00000000
  73         0.00000000
  74         0.00000000
  75         0.00000240
  76        -0.00001538
  77        -0.00000000
  78        -0.00000000
  79         0.00000000
  80         0.00005308
  81        -0.00034033
  82         0.00000000
  83        -0.00000000
  84        -0.00000000
  85        -0.00000113
  86         0.00000721
  87         0.00000000
  88         0.00000000
  89        -0.00000000
  90         0.00000000
Sym=     9a  
Ene=   -22.1380
Spin= Alpha
Occup=    2.00000
   1        -0.00000000
   2         0.00000000
   3         0.00000000
   4        -0.00000000
   5        -0.00000000
   6         0.00000000
   7         0.71811704
   8         0.11149245
   9         0.00000001
  10         0.01563720
  11         0.00242778
  12         0.00000000
  13        -0.00307107
  14        -0.00047680
  15        -0.00000000
  16         0.00080327
  17         0.00012471
  18         0.00000000
  19         0.00000000
  20        -0.00002036
  21        -0.00000316
  22         0.00000000
  23        -0.00000000
  24        -0.00000000
  25        -0.00002011
  26        -0.00000312
  27         0.00000000
  28         0.00000000
  29         0.00000000
  30         0.00001906
  31         0.00000296
  32         0.00000000
  33        -0.00000000
  34         0.00000000
  35        -0.00008283
  36        -0.00001286
  37        -0.00000000
  38         0.00000000
  39         0.00000000
  40        -0.00000312
  41        -0.00000049
  42         0.00000000
  43        -0.00000000
  44         0.00000000
  45         0.00000000
  46        -0.00000000
  47         0.00000000
  48        -0.00000000
  49         0.00000000
  50        -0.00000000
  51        -0.00000000
  52         0.66753036
  53         0.10363853
  54        -0.00000000
  55         0.01453140
  56         0.00225610
  57        -0.00000000
  58        -0.00284253
  59        -0.00044132
  60         0.00000000
  61         0.00072039
  62         0.00011185
  63        -0.00000000
  64        -0.00000000
  65         0.00001918
  66         0.00000298
  67        -0.00000000
  68         0.00000000
  69        -0.00000000
  70         0.00002067
  71         0.00000321
  72         0.00000000
  73        -0.00000000
  74        -0.00000000
  75        -0.00001799
  76        -0.00000279
  77         0.00000000
  78         0.00000000
  79         0.00000000
  80         0.00010793
  81         0.00001676
  82        -0.00000000
  83        -0.00000000
  84        -0.00000000
  85        -0.00000366
  86        -0.00000057
  87        -0.00000000
  88         0.00000000
  89         0.00000000
  90         0.00000000
Sym=    10a  
Ene=   -22.1380
Spin= Alpha
Occup=    2.00000
   1        -0.00000000
   2         0.00000000
   3         0.00000000
   4        -0.00000000
   5         0.00000000
   6         0.00000000
   7        -0.11149246
   8         0.71811715
   9         0.00000001
  10        -0.00242778
  11         0.01563720
  12         0.00000000
  13         0.00047680
  14        -0.00307107
  15        -0.00000000
  16        -0.00012471
  17         0.00080327
  18         0.00000000
  19         0.00000000
  20         0.00000316
  21        -0.00002036
  22         0.00000000
  23         0.00000000
  24        -0.00000000
  25         0.00000312
  26        -0.00002011
  27        -0.00000000
  28         0.00000000
  29         0.00000000
  30        -0.00000296
  31         0.00001906
  32         0.00000000
  33        -0.00000000
  34         0.00000000
  35         0.00001286
  36        -0.00008283
  37        -0.00000000
  38        -0.00000000
  39         0.00000000
  40         0.00000049
  41        -0.00000312
  42        -0.00000000
  43        -0.00000000
  44        -0.00000000
  45         0.00000000
  46         0.00000000
  47        -0.00000000
  48        -0.00000000
  49         0.00000000
  50        -0.00000000
  51        -0.00000000
  52        -0.10363852
  53         0.66753024
  54        -0.00000000
  55        -0.00225610
  56         0.01453140
  57        -0.00000000
  58         0.00044132
  59        -0.00284253
  60        -0.00000000
  61        -0.00011185
  62         0.00072039
  63         0.00000000
  64        -0.00000000
  65        -0.00000298
  66         0.00001918
  67        -0.00000000
  68        -0.00000000
  69        -0.00000000
  70        -0.00000321
  71         0.00002067
  72         0.00000000
  73         0.00000000
  74        -0.00000000
  75         0.00000279
  76        -0.00001799
  77        -0.00000000
  78        -0.00000000
  79        -0.00000000
  80        -0.00001676
  81         0.00010793
  82         0.00000000
  83        -0.00000000
  84         0.00000000
  85         0.00000057
  86        -0.00000366
  87         0.00000000
  88         0.00000000
  89        -0.00000000
  90         0.00000000
Sym=    11a  
Ene=    -3.2835
Spin= Alpha
Occup=    2.00000
   1         0.07914524
   2        -0.31364608
   3         0.44878817
   4         0.33098783
   5         0.01031813
   6        -0.00332816
   7        -0.00000000
   8         0.00000000
   9         0.00041504
  10         0.00000000
  11        -0.00000000
  12        -0.00079396
  13         0.00000000
  14        -0.00000000
  15        -0.00099422
  16        -0.00000000
  17         0.00000000
  18        -0.00007988
  19         0.00014935
  20         0.00000000
  21         0.00000000
  22        -0.00000000
  23        -0.00000000
  24        -0.00015952
  25         0.00000000
  26        -0.00000000
  27        -0.00000000
  28        -0.00000000
  29         0.00042882
  30         0.00000000
  31        -0.00000000
  32        -0.00000000
  33        -0.00000000
  34        -0.00048295
  35         0.00000000
  36         0.00000000
  37        -0.00000000
  38        -0.00000000
  39         0.00000962
  40        -0.00000000
  41        -0.00000000
  42         0.00000000
  43         0.00000000
  44        -0.00000000
  45         0.00000000
  46         0.07917637
  47        -0.31376942
  48         0.44896476
  49         0.33111777
  50         0.01032285
  51        -0.00332965
  52         0.00000000
  53        -0.00000000
  54        -0.00041523
  55        -0.00000000
  56         0.00000000
  57         0.00079433
  58        -0.00000000
  59         0.00000000
  60         0.00099477
  61         0.00000000
  62        -0.00000000
  63         0.00007910
  64         0.00014938
  65        -0.00000000
  66        -0.00000000
  67        -0.00000000
  68        -0.00000000
  69        -0.00015954
  70        -0.00000000
  71        -0.00000000
  72        -0.00000000
  73        -0.00000000
  74         0.00042912
  75        -0.00000000
  76        -0.00000000
  77        -0.00000000
  78        -0.00000000
  79        -0.00048275
  80        -0.00000000
  81         0.00000000
  82        -0.00000000
  83        -0.00000000
  84        -0.00000963
  85         0.00000000
  86        -0.00000000
  87        -0.00000000
  88        -0.00000000
  89        -0.00000000
  90         0.00000000
Sym=    12a  
Ene=    -3.2833
Spin= Alpha
Occup=    2.00000
   1        -0.07919577
   2         0.31376748
   3        -0.44923544
   4        -0.33056123
   5        -0.01200026
   6         0.00380427
   7         0.00000000
   8        -0.00000000
   9        -0.00049119
  10        -0.00000000
  11         0.00000000
  12         0.00091700
  13        -0.00000000
  14         0.00000000
  15         0.00139321
  16         0.00000000
  17        -0.00000000
  18        -0.00199416
  19        -0.00009348
  20        -0.00000000
  21        -0.00000000
  22         0.00000000
  23         0.00000000
  24         0.00004907
  25        -0.00000000
  26         0.00000000
  27         0.00000000
  28         0.00000000
  29        -0.00076065
  30        -0.00000000
  31         0.00000000
  32         0.00000000
  33         0.00000000
  34        -0.00050823
  35        -0.00000000
  36         0.00000000
  37         0.00000000
  38         0.00000000
  39        -0.00002510
  40         0.00000000
  41         0.00000000
  42        -0.00000000
  43         0.00000000
  44         0.00000000
  45        -0.00000000
  46         0.07916465
  47        -0.31364414
  48         0.44905895
  49         0.33043107
  50         0.01199620
  51        -0.00380296
  52         0.00000000
  53        -0.00000000
  54        -0.00049103
  55        -0.00000000
  56         0.00000000
  57         0.00091669
  58        -0.00000000
  59         0.00000000
  60         0.00139283
  61        -0.00000000
  62        -0.00000000
  63        -0.00199419
  64         0.00009343
  65        -0.00000000
  66        -0.00000000
  67        -0.00000000
  68        -0.00000000
  69        -0.00004901
  70        -0.00000000
  71        -0.00000000
  72        -0.00000000
  73        -0.00000000
  74         0.00076048
  75        -0.00000000
  76        -0.00000000
  77        -0.00000000
  78        -0.00000000
  79         0.00050842
  80        -0.00000000
  81        -0.00000000
  82        -0.00000000
  83        -0.00000000
  84        -0.00002509
  85         0.00000000
  86        -0.00000000
  87        -0.00000000
  88         0.00000000
  89        -0.00000000
  90         0.00000000
Sym=    13a  
Ene=    -2.0510
Spin= Alpha
Occup=    2.00000
   1         0.00013782
   2        -0.00023217
   3         0.00144151
   4        -0.00149880
   5         0.00177128
   6        -0.00005097
   7         0.00000000