HF file generated by AutoMR of MOKIT
Stability RHF                                                         Gen
Number of atoms                            I                2
Info1-9                                    I   N=           9
           6           5           0           0           0         110
           7           1           2
Charge                                     I                0
Multiplicity                               I                1
Number of electrons                        I               48
Number of alpha electrons                  I               24
Number of beta electrons                   I               24
Number of basis functions                  I               90
Number of independent functions            I               90
Number of point charges in /Mol/           I                0
Number of translation vectors              I                0
Atomic numbers                             I   N=           2
          24          24
Nuclear charges                            R   N=           2
  2.40000000E+01  2.40000000E+01
Current cartesian coordinates              R   N=           6
  0.00000000E+00  0.00000000E+00  0.00000000E+00  0.00000000E+00  0.00000000E+00
  5.66917840E+00
Force Field                                I                0
Int Atom Types                             I   N=           2
           0           0
MM charges                                 R   N=           2
  0.00000000E+00  0.00000000E+00
Integer atomic weights                     I   N=           2
          52          52
Real atomic weights                        R   N=           2
  5.19405097E+01  5.19405097E+01
Atom fragment info                         I   N=           2
           1           2
Atom residue num                           I   N=           2
           0           0
Nuclear spins                              I   N=           2
           0           0
Nuclear ZEff                               R   N=           2
 -2.47200000E+01 -2.47200000E+01
Nuclear QMom                               R   N=           2
  0.00000000E+00  0.00000000E+00
Nuclear GFac                               R   N=           2
  0.00000000E+00  0.00000000E+00
MicOpt                                     I   N=           2
          -1          -1
Number of contracted shells                I               30
Number of primitive shells                 I               72
Pure/Cartesian d shells                    I                0
Pure/Cartesian f shells                    I                0
Highest angular momentum                   I                3
Largest degree of contraction              I                8
Shell types                                I   N=          30
           0           0           0           0           0           0
           1           1           1          -2          -2          -2
           1          -2          -3           0           0           0
           0           0           0           1           1           1
          -2          -2          -2           1          -2          -3
Number of primitives per shell             I   N=          30
           8           4           2           1           1           1
           6           3           1           4           1           1
           1           1           1           8           4           2
           1           1           1           6           3           1
           4           1           1           1           1           1
Shell to atom map                          I   N=          30
           1           1           1           1           1           1
           1           1           1           1           1           1
           1           1           1           2           2           2
           2           2           2           2           2           2
           2           2           2           2           2           2
Primitive exponents                        R   N=          72
  2.54477807E+05  3.81317971E+04  8.67529306E+03  2.45500998E+03  7.99162178E+02
  2.86900215E+02  1.11254132E+02  4.38641526E+01  2.79326692E+02  8.62747324E+01
  1.35557561E+01  5.69781128E+00  8.56365826E+00  1.39882968E+00  5.72881711E-01
  9.00961713E-02  3.41258851E-02  1.30643989E+03  3.09253114E+02  9.89962740E+01
  3.67569165E+01  1.45666571E+01  5.87399374E+00  2.28909997E+01  3.08550018E+00
  1.21323291E+00  4.49316807E-01  4.37200745E+01  1.23912427E+01  4.26394420E+00
  1.55252218E+00  5.37619295E-01  1.64931731E-01  1.20675000E-01  5.10000000E-02
  1.14700000E+00  2.54477807E+05  3.81317971E+04  8.67529306E+03  2.45500998E+03
  7.99162178E+02  2.86900215E+02  1.11254132E+02  4.38641526E+01  2.79326692E+02
  8.62747324E+01  1.35557561E+01  5.69781128E+00  8.56365826E+00  1.39882968E+00
  5.72881711E-01  9.00961713E-02  3.41258851E-02  1.30643989E+03  3.09253114E+02
  9.89962740E+01  3.67569165E+01  1.45666571E+01  5.87399374E+00  2.28909997E+01
  3.08550018E+00  1.21323291E+00  4.49316807E-01  4.37200745E+01  1.23912427E+01
  4.26394420E+00  1.55252218E+00  5.37619295E-01  1.64931731E-01  1.20675000E-01
  5.10000000E-02  1.14700000E+00
Contraction coefficients                   R   N=          72
  2.42904776E-04  1.88435236E-03  9.80095844E-03  3.98250087E-02  1.29405437E-01
  3.06290018E-01  4.34628350E-01  2.24695629E-01 -2.43633579E-02 -1.15114954E-01
  5.50922663E-01  5.36113547E-01 -3.71230177E-01  1.16811695E+00  1.00000000E+00
  1.00000000E+00  1.00000000E+00  2.82928007E-03  2.27766292E-02  1.05645619E-01
  2.99499449E-01  4.77062454E-01  2.76542344E-01 -1.94121061E-02  3.86188758E-01
  6.76239089E-01  1.00000000E+00  2.20932593E-02  1.28014388E-01  3.86529103E-01
  6.41033014E-01  1.00000000E+00  1.00000000E+00  1.00000000E+00  1.00000000E+00
  1.00000000E+00  2.42904776E-04  1.88435236E-03  9.80095844E-03  3.98250087E-02
  1.29405437E-01  3.06290018E-01  4.34628350E-01  2.24695629E-01 -2.43633579E-02
 -1.15114954E-01  5.50922663E-01  5.36113547E-01 -3.71230177E-01  1.16811695E+00
  1.00000000E+00  1.00000000E+00  1.00000000E+00  2.82928007E-03  2.27766292E-02
  1.05645619E-01  2.99499449E-01  4.77062454E-01  2.76542344E-01 -1.94121061E-02
  3.86188758E-01  6.76239089E-01  1.00000000E+00  2.20932593E-02  1.28014388E-01
  3.86529103E-01  6.41033014E-01  1.00000000E+00  1.00000000E+00  1.00000000E+00
  1.00000000E+00  1.00000000E+00
Coordinates of each shell                  R   N=          90
  0.00000000E+00  0.00000000E+00  0.00000000E+00  0.00000000E+00  0.00000000E+00
  0.00000000E+00  0.00000000E+00  0.00000000E+00  0.00000000E+00  0.00000000E+00
  0.00000000E+00  0.00000000E+00  0.00000000E+00  0.00000000E+00  0.00000000E+00
  0.00000000E+00  0.00000000E+00  0.00000000E+00  0.00000000E+00  0.00000000E+00
  0.00000000E+00  0.00000000E+00  0.00000000E+00  0.00000000E+00  0.00000000E+00
  0.00000000E+00  0.00000000E+00  0.00000000E+00  0.00000000E+00  0.00000000E+00
  0.00000000E+00  0.00000000E+00  0.00000000E+00  0.00000000E+00  0.00000000E+00
  0.00000000E+00  0.00000000E+00  0.00000000E+00  0.00000000E+00  0.00000000E+00
  0.00000000E+00  0.00000000E+00  0.00000000E+00  0.00000000E+00  0.00000000E+00
  0.00000000E+00  0.00000000E+00  5.66917840E+00  0.00000000E+00  0.00000000E+00
  5.66917840E+00  0.00000000E+00  0.00000000E+00  5.66917840E+00  0.00000000E+00
  0.00000000E+00  5.66917840E+00  0.00000000E+00  0.00000000E+00  5.66917840E+00
  0.00000000E+00  0.00000000E+00  5.66917840E+00  0.00000000E+00  0.00000000E+00
  5.66917840E+00  0.00000000E+00  0.00000000E+00  5.66917840E+00  0.00000000E+00
  0.00000000E+00  5.66917840E+00  0.00000000E+00  0.00000000E+00  5.66917840E+00
  0.00000000E+00  0.00000000E+00  5.66917840E+00  0.00000000E+00  0.00000000E+00
  5.66917840E+00  0.00000000E+00  0.00000000E+00  5.66917840E+00  0.00000000E+00
  0.00000000E+00  5.66917840E+00  0.00000000E+00  0.00000000E+00  5.66917840E+00
Constraint Structure                       R   N=           6
  0.00000000E+00  0.00000000E+00  0.00000000E+00  0.00000000E+00  0.00000000E+00
  5.66917840E+00
Num ILSW                                   I              100
ILSW                                       I   N=         100
           0           0           0           0           2           1
           0           0           0           0           0          -1
           0           0           0           0           0           0
           0           0           0           0           0           0
           1           1           0           0           0           0
           0           0      100000           0          -1           0
           0           0           0           0           0           0
           0           0           0           1           0           0
           0           0           1           0           0           0
           0           0           4          40           0           0
           0           0           0           0           0           0
           0           0           0           0           0           0
           0           0           0           0           0           0
           0           0           0           0           0           0
           0           0           0           0           0           0
           0           0           0           0           0           0
           0           0           0           0
Num RLSW                                   I               40
RLSW                                       R   N=          40
  1.00000000E+00  1.00000000E+00  1.00000000E+00  1.00000000E+00  1.00000000E+00
  0.00000000E+00  0.00000000E+00  1.00000000E+00  0.00000000E+00  0.00000000E+00
  0.00000000E+00  0.00000000E+00  1.00000000E+00  0.00000000E+00  0.00000000E+00
  0.00000000E+00  0.00000000E+00  1.00000000E+00  0.00000000E+00  0.00000000E+00
  0.00000000E+00  0.00000000E+00  1.00000000E+00  0.00000000E+00  0.00000000E+00
  0.00000000E+00  0.00000000E+00  1.00000000E+00  0.00000000E+00  0.00000000E+00
  0.00000000E+00  0.00000000E+00  1.00000000E+00  0.00000000E+00  0.00000000E+00
  0.00000000E+00  0.00000000E+00  0.00000000E+00  1.00000000E+00  1.00000000E+00
ECP-MxAtEC                                 I           250000
ECP-MaxLECP                                I               10
ECP-MaxAtL                                 I          2250000
ECP-MxTECP                                 I         11250000
ECP-LenNCZ                                 I                0
ECP-KFirst                                 I   N=          20
           0           0           0           0           0           0
           0           0           0           0           0           0
           0           0           0           0           0           0
           0           0
ECP-KLast                                  I   N=          20
           0           0           0           0           0           0
           0           0           0           0           0           0
           0           0           0           0           0           0
           0           0
ECP-LMax                                   I   N=           2
           0           0
ECP-LPSkip                                 I   N=           2
           1           1
ECP-RNFroz                                 R   N=           2
  0.00000000E+00  0.00000000E+00
ECP-NLP                                    I                0
ECP-CLP1                                   R      0.000000000000000E+00
ECP-CLP2                                   R      0.000000000000000E+00
ECP-ZLP                                    R      0.000000000000000E+00
MxBond                                     I                1
NBond                                      I   N=           2
           0           0
IBond                                      I   N=           2
           0           0
RBond                                      R   N=           2
  0.00000000E+00  0.00000000E+00
Virial Ratio                               R      2.000014116054456E+00
SCF Energy                                 R     -2.086669893077687E+03
Total Energy                               R     -2.086669893077687E+03
S**2                                       R      5.674569458496144E+00
S**2 after annihilation                    R      1.770799823535651E+01
RMS Density                                R      1.813224320738972E-09
External E-field                           R   N=          35
  0.00000000E+00  0.00000000E+00  0.00000000E+00  0.00000000E+00  0.00000000E+00
  0.00000000E+00  0.00000000E+00  0.00000000E+00  0.00000000E+00  0.00000000E+00
  0.00000000E+00  0.00000000E+00  0.00000000E+00  0.00000000E+00  0.00000000E+00
  0.00000000E+00  0.00000000E+00  0.00000000E+00  0.00000000E+00  0.00000000E+00
  0.00000000E+00  0.00000000E+00  0.00000000E+00  0.00000000E+00  0.00000000E+00
  0.00000000E+00  0.00000000E+00  0.00000000E+00  0.00000000E+00  0.00000000E+00
  0.00000000E+00  0.00000000E+00  0.00000000E+00  0.00000000E+00  0.00000000E+00
IOpCl                                      I                0
IROHF                                      I                0
Alpha Orbital Energies                     R   N=          90
  2.00000000E+00  2.00000000E+00  2.00000000E+00  2.00000000E+00  2.00000000E+00
  2.00000000E+00  2.00000000E+00  2.00000000E+00  2.00000000E+00  2.00000000E+00
  2.00000000E+00  2.00000000E+00  2.00000000E+00  2.00000000E+00  2.00000000E+00
  2.00000000E+00  2.00000000E+00  2.00000000E+00  1.65295293E+00  1.07177532E+00
  1.06817203E+00  1.06817206E+00  1.01507401E+00  1.01507399E+00  9.84926263E-01
  9.84926244E-01  9.31832311E-01  9.31832339E-01  9.28429873E-01  3.46832623E-01
  0.00000000E+00  0.00000000E+00  0.00000000E+00  0.00000000E+00  0.00000000E+00
  0.00000000E+00  0.00000000E+00  0.00000000E+00  0.00000000E+00  0.00000000E+00
  0.00000000E+00  0.00000000E+00  0.00000000E+00  0.00000000E+00  0.00000000E+00
  0.00000000E+00  0.00000000E+00  0.00000000E+00  0.00000000E+00  0.00000000E+00
  0.00000000E+00  0.00000000E+00  0.00000000E+00  0.00000000E+00  0.00000000E+00
  0.00000000E+00  0.00000000E+00  0.00000000E+00  0.00000000E+00  0.00000000E+00
  0.00000000E+00  0.00000000E+00  0.00000000E+00  0.00000000E+00  0.00000000E+00
  0.00000000E+00  0.00000000E+00  0.00000000E+00  0.00000000E+00  0.00000000E+00
  0.00000000E+00  0.00000000E+00  0.00000000E+00  0.00000000E+00  0.00000000E+00
  0.00000000E+00  0.00000000E+00  0.00000000E+00  0.00000000E+00  0.00000000E+00
  0.00000000E+00  0.00000000E+00  0.00000000E+00  0.00000000E+00  0.00000000E+00
  0.00000000E+00  0.00000000E+00  0.00000000E+00  0.00000000E+00  0.00000000E+00
Alpha MO coefficients                      R   N=        8100
  6.98140979E-01  4.86314017E-03 -1.63909899E-03  1.13859382E-03 -5.15840400E-04
  1.56925946E-04 -2.40139328E-13 -4.72637730E-13  2.63471456E-06 -3.21598920E-15
 -1.67624629E-14 -2.12816070E-05  6.09288357E-14  1.52344345E-13  7.66091743E-05
 -6.56557530E-06 -4.25595486E-14 -2.54667995E-15  9.43871363E-14 -5.88176134E-14
  3.23415943E-05  2.05777456E-14 -4.90895276E-15  9.62145271E-15  2.61021394E-14
 -1.41358358E-04 -2.59398634E-14  3.64897527E-14 -2.32867242E-14 -7.13898596E-14
 -2.20058388E-14 -2.91942279E-14 -2.48381676E-04 -2.39214993E-05  2.52221044E-14
 -1.36481248E-13  1.05235647E-14 -2.04977861E-15 -7.51520996E-06 -5.28867487E-14
  2.67748797E-14 -7.70252650E-14 -5.00240510E-14  2.62787186E-14 -2.76831362E-14
 -7.12903906E-01 -4.96616647E-03  1.67261306E-03 -1.16013105E-03  5.22610517E-04
 -1.59930720E-04 -5.30542561E-13 -5.53425061E-14  2.60762996E-06  4.41181163E-14
  8.10890646E-14 -2.12909665E-05  1.03585781E-13 -1.18366827E-13  7.65818137E-05
  6.64655094E-06  5.14126658E-14  1.56021865E-14  3.51341809E-14 -4.66310389E-14
 -3.25830061E-05 -2.45012618E-14 -1.54056259E-13 -3.12842227E-14 -2.73883956E-14
  1.41536648E-04 -4.22117447E-14  7.41289867E-14 -3.29083973E-14  8.54914177E-14
 -1.09933298E-14  1.34802854E-13 -2.48016061E-04  2.33202388E-05  1.00046062E-13
 -9.35923751E-14  2.83481187E-14  1.26270852E-14 -7.48835984E-06 -1.73385754E-14
 -4.00191859E-14  1.17245646E-14 -1.96306236E-15 -3.06576054E-14  2.39756799E-14
  7.12906467E-01  4.97507896E-03 -1.61897191E-03  1.04129587E-03 -3.28978374E-04
  1.45256623E-04 -2.49113061E-13 -4.85881667E-13 -1.26695813E-06  8.20122814E-15
 -2.28900285E-15 -6.70007479E-07  6.50564413E-14  1.30570535E-13 -5.06184454E-07
 -3.93897763E-06 -2.13457480E-14 -3.73199993E-14  6.32568061E-14 -2.30873223E-14
  1.18767889E-05  2.18958306E-14  6.71448368E-14 -6.98356974E-14 -5.87704013E-14
 -1.00004514E-05 -4.04065626E-14  2.14918453E-14  2.35342157E-14  1.55434440E-14
 -7.74258914E-14 -2.91994067E-15  1.48760953E-05  2.84873022E-05 -3.11020973E-14
 -7.26431388E-15 -4.65595794E-14  2.30845783E-14  1.20468906E-06  5.88807735E-15
  1.03385862E-14 -4.66179389E-14 -1.78622683E-15 -1.68658759E-14 -2.03287861E-15
  6.98143593E-01  4.87224112E-03 -1.58432355E-03  1.01724577E-03 -3.18113717E-04
  1.41941552E-04  5.32288966E-13  5.02864709E-14  1.32180544E-06 -9.73693509E-14
 -5.45800077E-14  2.24597392E-07 -1.93364298E-14  3.63180789E-14  2.10892527E-06
 -3.80074743E-06  8.49059920E-14  1.32868086E-13  4.70840815E-14 -9.74288073E-14
  1.11975238E-05 -3.84904919E-14 -8.62410542E-14 -2.19169967E-14  2.60186190E-14
 -7.04069959E-06 -1.31449763E-14  6.67979474E-14 -2.38774264E-15 -5.22898027E-15
 -2.44631210E-14  2.08027989E-14 -2.00695916E-05  2.89815627E-05  1.22928524E-14
 -6.69451786E-14  4.66679982E-14  1.16584442E-14 -1.36166194E-06 -1.56473950E-14
  1.15169665E-14  1.35855870E-14  1.72210408E-14  1.93936938E-15 -3.88281104E-15
 -2.20111066E-01  7.31715900E-01  2.35745972E-02 -6.50869394E-03  2.36906302E-03
 -6.88932885E-04 -4.72179737E-11 -9.61968605E-11 -1.69683789E-04 -2.81738916E-12
 -1.84216295E-12  6.49879615E-05  6.15351035E-13 -4.09620490E-12 -2.95987929E-04
  2.94501488E-05 -1.08440156E-11 -1.36302071E-11  2.20721544E-11 -4.60999897E-12
 -1.23541593E-04  2.59985396E-12 -2.18655887E-12 -6.19016302E-12  2.37574310E-12
  5.63704212E-04 -7.62800928E-12 -1.35564973E-12  2.60636597E-12 -5.90095435E-13
 -2.65153076E-12 -4.87642295E-12  1.00835557E-03  1.06713866E-04 -2.73844721E-12
 -1.97969330E-12  1.98653298E-12  3.75202742E-12  2.64893363E-05 -1.12802270E-11
  2.41421271E-12 -2.99079141E-12 -3.47704183E-12  1.85833043E-12 -4.71200517E-12
  2.21040935E-01 -7.34806787E-01 -2.36731124E-02  6.53448064E-03 -2.37614775E-03
  6.91051907E-04 -1.38453622E-10  8.33978732E-12 -1.70314773E-04 -2.42400001E-12
 -3.49263492E-12  6.48668573E-05 -6.59523873E-12  2.02888299E-12 -2.96003876E-04
 -2.96048540E-05 -1.06688912E-11 -8.55894482E-12 -4.60075913E-13  9.48523997E-12
  1.23748513E-04  2.38301536E-12 -1.08514276E-11 -8.42071972E-12 -4.31935657E-13
 -5.63936912E-04 -7.33579055E-12  6.27450334E-12  2.22580515E-12  9.01932358E-12
  1.85710808E-12  4.75636531E-12  1.00809742E-03 -1.06162298E-04 -7.40818340E-12
 -1.46766383E-11 -1.36107644E-12 -5.66845374E-12  2.64623676E-05 -2.46498354E-12
 -5.09521052E-12  6.29387393E-12  6.59461664E-12 -2.52793539E-12  4.09309434E-12
 -2.21056882E-01  7.34793496E-01  2.34204409E-02 -6.13105883E-03  1.68568629E-03
 -5.04143460E-04 -4.74377499E-11 -9.68557636E-11 -1.50042227E-04 -2.19511389E-12
 -1.34283403E-13 -2.85909228E-05 -4.06441689E-12 -1.14446553E-11 -4.40852439E-06
  3.67550599E-05  2.35316776E-12 -1.33446877E-11  1.30278084E-11 -9.45683977E-12
 -4.93410967E-05 -1.08626093E-11  3.91078420E-12 -1.21672998E-13  1.20612121E-11
  5.63883250E-05  1.33564541E-11 -6.58338066E-12  2.04120686E-11 -4.16614727E-12
  1.01419853E-11  1.31252620E-11 -5.91142232E-05 -1.30621726E-04 -4.34272630E-12
  9.55754402E-12 -1.08264552E-11  7.05535370E-13 -6.34536386E-06  1.18422915E-11
  8.68290992E-12 -1.42455700E-13 -3.68840319E-12 -3.87052716E-12  1.29539939E-11
 -2.20127081E-01  7.31702553E-01  2.33208584E-02 -6.10356823E-03  1.67568497E-03
 -5.01234891E-04  1.38011229E-10 -8.47217436E-12  1.49325639E-04  1.41964280E-12
  3.85472821E-12  2.88646202E-05  1.03761690E-11 -3.72000609E-13  3.16080050E-06
  3.66305951E-05 -3.06377903E-12  2.72541339E-11  2.23311540E-12 -4.86266876E-12
 -4.88198758E-05 -7.80402959E-13 -1.08109179E-11 -1.61658543E-13  1.45226691E-11
  5.40116299E-05  3.58437206E-12  1.00282866E-11  1.71097767E-11 -2.40341079E-11
 -6.81959525E-12 -1.14773306E-11  6.33642235E-05 -1.31070401E-04  7.12736888E-13
  2.99461456E-12 -7.41557987E-12  1.40244063E-11  6.45696213E-06 -7.96845483E-12
 -3.90636770E-12  9.03232718E-12 -4.58337677E-12 -1.07983110E-11  3.47463928E-12
 -3.67523718E-05  1.10065001E-04 -3.03194790E-05  1.55263996E-04 -6.22204064E-04
 -1.08075795E-05 -3.69375705E-07 -1.84529924E-07  5.13849235E-01 -8.05492532E-09
 -3.98921961E-09  1.12371857E-02  1.61180349E-09  7.07011660E-10 -2.27400733E-03
 -6.06780561E-06 -6.37825709E-13  2.87902278E-11 -1.77223886E-12  5.67586000E-12
 -1.07404020E-04  6.25934731E-12  1.80234237E-11 -3.69594814E-12  2.98491329E-12
 -4.66931854E-05  1.11115048E-11 -2.43327560E-11  4.86661513E-12 -1.13482425E-11
 -4.72669884E-10 -2.65162563E-11  2.98977342E-04  1.20638400E-04 -2.53851684E-11
  2.19484358E-10  7.59509254E-12 -1.31252604E-11 -1.18599443E-05 -1.72053822E-11
 -3.60585406E-12 -6.29945297E-12 -2.14714460E-12  4.51939843E-12 -1.56360995E-11
 -5.76013735E-05  2.08867694E-04  4.43982564E-05 -4.61801470E-05 -2.25646268E-04
  2.86281023E-04 -8.72482662E-08 -7.99568639E-07 -8.48746168E-01 -1.88263753E-09
 -1.74270340E-08 -1.85893876E-02  3.39183378E-10  3.48515437E-09  3.90774477E-03
 -3.51428642E-06  2.27414714E-11 -4.66649291E-11  3.05198430E-13  1.41825887E-11
 -1.33310213E-04 -2.31513368E-11  5.41374651E-12 -8.15481982E-12 -6.75727326E-12
  1.91225859E-04  2.26730410E-11  1.21442605E-11  4.15766696E-12 -8.60079890E-12
 -3.37202571E-11 -1.04425768E-09 -1.33312426E-03  2.28534626E-04 -9.83279929E-11
  1.13879525E-10 -1.34129601E-11 -6.90973947E-12 -1.55169489E-06  6.50573396E-12
 -3.36376616E-12  1.52988474E-13 -2.90942431E-12  7.98217973E-12 -1.06203258E-12
 -5.40089064E-05  2.40190981E-04  1.53730618E-04 -3.96398274E-04  7.02536087E-04
  6.38229051E-04 -6.11501522E-07 -3.13824202E-07  8.48740791E-01 -1.33405848E-08
 -6.86204895E-09  1.86222049E-02  2.69886902E-09  1.42647834E-09 -4.08323864E-03
  4.01715273E-06  1.21519726E-11  2.34290706E-11 -6.41716138E-12  1.10826136E-11
 -8.22832095E-05  9.84810330E-12 -1.12758448E-11 -5.34184476E-13 -4.36026262E-12
  5.01767220E-04 -2.03627485E-11 -3.11370024E-12 -3.62322829E-12  1.75171947E-12
 -8.66047998E-10 -5.36102783E-10  2.30436487E-03  2.62406540E-04 -1.50670137E-10
 -2.21800093E-10 -9.87587192E-12 -2.31185958E-11  2.60168955E-05  2.46962967E-12
 -1.24554183E-11  2.07797148E-12  7.34702863E-12 -2.53949716E-13  2.92617296E-12
  3.08185279E-05 -1.61803308E-04 -1.50270312E-04  4.23208995E-04 -9.10921728E-04
 -5.70522871E-04  5.52938161E-08  4.85586132E-07  5.13840353E-01  1.23117388E-09
  1.06022156E-08  1.12913916E-02 -3.24359736E-10 -2.16819267E-09 -2.56387986E-03
 -6.37221414E-06 -1.46180763E-11  3.05237360E-13 -1.02566768E-11 -7.83147388E-13
  2.31201217E-05  3.32324347E-15  1.14249128E-11  9.08491483E-12 -5.17678008E-12
 -4.66243807E-04 -1.06848888E-11 -6.99586521E-12  8.54899400E-12  9.83792340E-12
  2.58113341E-10  7.47309941E-10  1.90322488E-03 -1.76586333E-04 -2.14831006E-10
 -1.50842020E-10  5.89209449E-12  9.46596648E-12  2.85504471E-05  1.57078162E-11
  1.63248878E-11 -6.29916453E-12  3.28971420E-12  6.92222791E-12 -1.02344085E-12
  1.99465350E-11 -6.31943415E-11  1.24683832E-11 -4.56881523E-11  1.53388876E-10
 -5.70313435E-11 -5.97304469E-01  3.43925467E-01 -3.04747222E-07 -1.30577579E-02
  7.51860562E-03 -6.66409284E-09  2.70117681E-03 -1.55533254E-03  1.36758174E-09
  7.22005565E-12  1.37798435E-05 -7.93423807E-06 -2.34239504E-11  1.65388442E-11
  4.38498308E-11 -7.08704653E-06  4.08161528E-06  3.58770503E-11 -1.16903032E-11
 -1.30092401E-11 -1.26314981E-05  7.27315042E-06 -3.75538026E-11 -7.67827216E-12
 -9.84339737E-04  5.66791672E-04 -3.46784346E-10 -8.21485911E-11 -3.03153676E-04
  1.74569711E-04  5.35865827E-11 -1.31614636E-11 -1.46016065E-11 -6.49039852E-06
  3.73750162E-06  2.56837984E-11  3.03890207E-11  1.90397228E-11  7.85093561E-12
  5.77732013E-11 -1.95178667E-10 -1.07617070E-11 -2.19056343E-11  1.95459665E-10
 -6.02252074E-11  6.18478120E-01 -3.56165104E-01  2.72618653E-07  1.35187548E-02
 -7.78508941E-03  5.96721444E-09 -2.79154091E-03  1.60756837E-03 -1.23773703E-09
  5.97277402E-12  1.43820194E-05 -8.28230606E-06  1.41873420E-11  1.15178230E-11
  8.39948686E-11 -6.46317430E-06  3.72099657E-06  1.61452505E-12 -3.06890872E-12
 -1.17282761E-10 -1.31980888E-05  7.60057250E-06 -3.12517225E-11 -4.51309471E-12
  1.00762245E-03 -5.80250441E-04  3.27768792E-10  1.99736475E-11 -3.00238528E-04
  1.72884668E-04 -6.71413095E-12  2.53522404E-11 -1.12789640E-11  6.38675243E-06
 -3.67760276E-06 -5.90458640E-13  5.02551616E-12 -2.57302992E-11  3.27652134E-11
  6.17474357E-11 -2.57471575E-10 -1.27492916E-10  3.56800178E-10 -7.53565350E-10
 -4.45642017E-10 -3.43992717E-01 -5.97338270E-01 -4.68398348E-07 -7.52006988E-03
 -1.30584939E-02 -1.02998765E-08  1.55561980E-03  2.70132118E-03  2.32483497E-09
 -1.29246357E-11  7.93613662E-06  1.37807767E-05  2.25952301E-11  8.85399699E-12
  4.16989248E-11 -4.07970482E-06 -7.08601009E-06 -1.21096178E-11 -1.72348935E-11
 -3.88039432E-10 -7.27485508E-06 -1.26325085E-05 -1.03220262E-11  1.33732432E-11
 -5.66866191E-04 -9.84377125E-04 -1.60276341E-09 -1.61164056E-10 -1.74561204E-04
 -3.03149234E-04  3.52303267E-12  1.65540577E-11  4.54672325E-13 -3.73720282E-06
 -6.49028637E-06  6.13454031E-11 -1.70064752E-11 -7.68841659E-15 -2.66052208E-13
 -1.74580105E-11  1.11415356E-10  1.47692119E-10 -3.50360846E-10  6.23365888E-10
  4.80236442E-10  3.56100153E-01  6.18445474E-01 -6.23206073E-07  7.78367540E-03
  1.35180441E-02 -1.36885439E-08 -1.60729146E-03 -2.79140169E-03  3.02490030E-09
  2.41771686E-11  8.28048154E-06  1.43810241E-05 -1.71749150E-11 -9.83325153E-13
 -6.98571922E-11 -3.72302306E-06 -6.46408520E-06  1.94107144E-11  3.41008481E-11
  3.80678339E-10 -7.59876570E-06 -1.31972693E-05 -9.80441852E-12 -5.14237863E-11
  5.80179622E-04  1.00758677E-03 -1.79126270E-09  2.33922692E-10 -1.72894309E-04
 -3.00243261E-04 -2.64895192E-12 -4.16647577E-12  5.22473161E-12  3.67793715E-06
  6.38694614E-06  3.66843201E-11 -4.32188308E-11  1.44163581E-12 -1.36015352E-11
 -1.85268287E-11  7.95114174E-11  4.65442721E-11 -1.17088249E-10  1.96441918E-10
  3.87696165E-10  6.21181447E-01 -3.51452822E-01  3.17474590E-07  1.35254158E-02
 -7.65242884E-03  6.96045758E-09 -2.65371058E-03  1.50142557E-03 -1.54156128E-09
 -6.05099718E-12 -1.76091315E-05  9.96280190E-06 -5.27382292E-12  7.02100545E-12
 -5.76324862E-11 -1.78716417E-05  1.01104628E-05  1.57685288E-12  8.60554914E-12
  3.18196752E-10  1.65623991E-05 -9.37054701E-06 -2.43608656E-11 -2.22624487E-11
  6.88784329E-04 -3.89713800E-04  9.54020306E-10 -3.76759781E-11 -7.87807186E-05
  4.45578107E-05  2.97323175E-11 -7.22318564E-12 -1.71572725E-11 -2.87672275E-06
  1.62720982E-06 -2.77962604E-11 -5.15057781E-11  5.49454366E-11  2.73280047E-12
  5.22313747E-11 -2.06497977E-10 -9.21082375E-11  2.06075247E-10 -2.94182171E-10
 -3.14903973E-10  5.99916515E-01 -3.39374602E-01  2.56309542E-07  1.30605730E-02
 -7.38840385E-03  5.63799249E-09 -2.55763900E-03  1.44685811E-03 -1.27830948E-09
 -1.74262145E-13  1.71165810E-05 -9.68304405E-06 -1.46473946E-11  4.12176640E-11
 -7.68156646E-12  1.81086161E-05 -1.02450881E-05 -3.51907639E-11 -4.92070900E-11
 -1.88011523E-10 -1.61106387E-05  9.11397407E-06  6.31189505E-11  5.21727455E-11
  6.53943366E-04 -3.69924714E-04  8.83295224E-10 -8.41794084E-11  8.93346274E-05
 -5.05521061E-05  5.59711054E-11 -6.54352505E-11  3.54448433E-11 -3.10193246E-06
  1.75517994E-06  7.29641416E-12 -4.39213626E-12 -1.57791800E-11  2.44425342E-11
 -6.66553785E-11  2.27061715E-10  1.71528184E-11  4.39753749E-11 -3.45798197E-10
 -1.13220575E-10  3.51387626E-01  6.21149298E-01  4.79375528E-07  7.65100356E-03
  1.35247129E-02  1.05005545E-08 -1.50113072E-03 -2.65356514E-03 -2.12543568E-09
  2.46856708E-11 -9.96127689E-06 -1.76084216E-05  8.25352413E-12 -5.76637436E-12
 -9.28473659E-11 -1.01113311E-05 -1.78721537E-05 -2.99384505E-11 -1.93126635E-11
 -1.15369224E-10  9.36932234E-06  1.65619439E-05  3.40820711E-11  3.41306547E-11
  3.89606361E-04  6.88731145E-04  2.94631093E-10  2.21270359E-10 -4.45909525E-05
 -7.87969497E-05  1.13015733E-12 -7.78782580E-12  2.20245116E-12 -1.62788137E-06
 -2.87704776E-06  5.33327583E-12 -2.61158060E-11  8.24645210E-11  1.37410143E-11
 -1.98978720E-11  7.83256118E-11  4.49521520E-11 -1.91433074E-11 -3.35915338E-10
  3.37318719E-10  3.39442106E-01  5.99949803E-01 -5.97774953E-07  7.38987935E-03
  1.30613006E-02 -1.31070033E-08 -1.44716279E-03 -2.55778924E-03  2.79076033E-09
  5.19627823E-11  9.68456593E-06  1.71174115E-05 -1.79564867E-11 -2.13568129E-11
 -1.99705813E-10  1.02444767E-05  1.81083231E-05 -2.11536111E-12  1.83721351E-12
  2.52329782E-10 -9.11549275E-06 -1.61113839E-05  3.72769363E-11  3.66760508E-12
  3.70034693E-04  6.53997566E-04 -9.93415663E-10  1.07056122E-10  5.05193483E-05
  8.93180851E-05 -2.15363248E-11  8.73568887E-11 -6.88252397E-12 -1.75442527E-06
 -3.10158624E-06 -5.29865052E-11 -4.40403694E-11 -5.20058138E-11 -1.28533455E-11
  7.91571353E-02 -3.13693131E-01  4.48855795E-01  3.31037126E-01  1.03199406E-02
 -3.32870853E-03  7.38925447E-11  1.73230406E-10  4.14578274E-04 -1.57996067E-10
 -3.61736420E-10 -7.92942959E-04 -1.20836904E-10 -2.94681300E-10 -9.93693426E-04
  1.49952790E-04 -8.47283214E-11  7.53091895E-11  2.22035533E-10 -9.69008421E-11
 -1.59070461E-04 -1.27279071E-12  2.32239800E-11  1.28685273E-10 -4.64070950E-11
  4.29152061E-04 -7.35775429E-11 -1.80862289E-12  2.60061160E-11 -2.06026543E-11
  9.55653653E-12 -9.74240144E-12 -7.95596269E-05 -4.82858409E-04  1.37949371E-11