/share/home/srwang/OpenMolcas/build
   This run of MOLCAS is using the pymolcas driver

                             OPE
                             OPE          NMOL  CASOP  ENMOLC A   SO
                 OPE        NMOLC        AS  OP EN  MO LC     AS  OP
                OPENM       OL CA        SO  PE NM  OL CA     SOP EN
                OP EN      MO   LC       AS  OP ENMOL  CASO   PENMOL
                OP  EN     MO   LC       AS  OP EN     MO     LC ASO
               OP   E  NMOL  C  AS       OP  EN MO     LC     AS  OP
               OP  E   NMO   LC AS        OPEN  MO     LCASOP EN   M
               O  PEN   MO  LCA  SO
            OPE   NMO   L   CAS    OP
        OPENMOL  CASOP     ENMOL   CASOPE
     OPENMOLCA   SOPENMOLCASOPEN   MOLCASOPE
    OPENMOLCAS   OP           EN   MOL    CAS
    OPENMOLCAS       OP  ENM        O     LCA
    OPENMOLCAS    OPEN  MOLCASO     P  E  NMO
    OPENMOLCAS     OP               E  N  MOL
    OPENMOLCA   SO           PENM   O  L  CAS    OPEN    MO    LCAS
    OPENMOLCA   SOP           ENM   O  L  CAS   OP  EN  MOLC  AS   O
    OPENMOLCA   SOPE           NM      O  LCA   S      OP  EN MO
    OPENMOLC                AS         O  PEN   M      OL  CA  SOPE
    OPENMO        LCASOPE  NMOL        C  ASO   P      ENMOLC     AS
    OPE     NMO      LCA  SO     P     E   NM   OL  CA SO  PE N   MO
          OPENMOLCA            SOPE   NMO        LCAS  O    P  ENMO
     OPENMOLCASOPENMOLCASOPENMOLCASOPENMOLCA
        OPENMOLCASOPENMOLCASOPENMOLCASOPE
            OPENMOLCASOPENMOLCASOPENM
               OPENMOLCASOPENMOLCA        version: 20.10
                   OPENMOLCASO
                       OPE                tag: 244-geede7d2-dirty

 OpenMolcas is free software; you can redistribute it and/or modify it
 under the terms of the GNU Lesser General Public License version 2.1.
 OpenMolcas is distributed in the hope that it will be useful, but it
 is provided "as is" and without any express or implied warranties.
 For more details see the full text of the license in the file
 LICENSE or in <http://www.gnu.org/licenses/>.

                 Copyright (C) The OpenMolcas Authors
           For the author list and the recommended citation,
                   consult the file CONTRIBUTORS.md

           *************************************************
           * pymolcas version py2.14                       *
           *   build 906445c9b32b4fa97f3a5784787463f7      *
           *   (after the EMIL interpreter by V. Veryazov) *
           *************************************************

configuration info
------------------
Host name: xn01 (Linux)
C Compiler ID: GNU
C flags: -std=gnu99 -fopenmp
Fortran Compiler ID: GNU
Fortran flags: -fno-aggressive-loop-optimizations -cpp -fdefault-integer-8 -fopenmp
Definitions: _MOLCAS_;_I8_;_LINUX_;_MKL_
Parallel: OFF (GA=OFF)


   -----------------------------------------------------------------------------------
  |
  |              Project: Cr2_30_uhf_SUHFNO_CASSCF
  |       Submitted from: /share/home/srwang/automr_inputlibrary/suhf_vs_gvb/Cr2_30_om
  |         Scratch area: /scratch/scr/srwang/molcas/Cr2_30_uhf_SUHFNO_CASSCF
  |      Save outputs to: /share/home/srwang/automr_inputlibrary/suhf_vs_gvb/Cr2_30_om
  |               Molcas: /share/home/srwang/OpenMolcas/build
  |
  | Scratch area is empty
  |
  |       MOLCAS_DRIVER = /share/home/srwang/Modules/bin/pymolcas
  | MOLCAS_KEEP_WORKDIR = YES
  |        MOLCAS_NPROC = 24
  |       MOLCAS_NPROCS = 1
  |       MOLCAS_SOURCE = /share/home/srwang/OpenMolcas
  |    MOLCAS_STRUCTURE = 0
  |
   -----------------------------------------------------------------------------------

++ ---------   Input file   ---------

&GATEWAY
Basis set
Cr...17s11p7d1f.6s4p4d1f.   / inline
     24.   3
   17    6
    2.544778070E+05
    3.813179710E+04
    8.675293060E+03
    2.455009980E+03
    7.991621780E+02
    2.869002150E+02
    1.112541320E+02
    4.386415260E+01
    2.793266920E+02
    8.627473240E+01
    1.355575610E+01
    5.697811280E+00
    8.563658260E+00
    1.398829680E+00
    5.728817110E-01
    9.009617130E-02
    3.412588510E-02
 2.429047760E-04   0.000000000E+00   0.000000000E+00   0.000000000E+00   0.000000000E+00   0.000000000E+00
 1.884352360E-03   0.000000000E+00   0.000000000E+00   0.000000000E+00   0.000000000E+00   0.000000000E+00
 9.800958440E-03   0.000000000E+00   0.000000000E+00   0.000000000E+00   0.000000000E+00   0.000000000E+00
 3.982500870E-02   0.000000000E+00   0.000000000E+00   0.000000000E+00   0.000000000E+00   0.000000000E+00
 1.294054370E-01   0.000000000E+00   0.000000000E+00   0.000000000E+00   0.000000000E+00   0.000000000E+00
 3.062900180E-01   0.000000000E+00   0.000000000E+00   0.000000000E+00   0.000000000E+00   0.000000000E+00
 4.346283500E-01   0.000000000E+00   0.000000000E+00   0.000000000E+00   0.000000000E+00   0.000000000E+00
 2.246956290E-01   0.000000000E+00   0.000000000E+00   0.000000000E+00   0.000000000E+00   0.000000000E+00
 0.000000000E+00  -2.436335790E-02   0.000000000E+00   0.000000000E+00   0.000000000E+00   0.000000000E+00
 0.000000000E+00  -1.151149540E-01   0.000000000E+00   0.000000000E+00   0.000000000E+00   0.000000000E+00
 0.000000000E+00   5.509226630E-01   0.000000000E+00   0.000000000E+00   0.000000000E+00   0.000000000E+00
 0.000000000E+00   5.361135470E-01   0.000000000E+00   0.000000000E+00   0.000000000E+00   0.000000000E+00
 0.000000000E+00   0.000000000E+00  -3.712301770E-01   0.000000000E+00   0.000000000E+00   0.000000000E+00
 0.000000000E+00   0.000000000E+00   1.168116950E+00   0.000000000E+00   0.000000000E+00   0.000000000E+00
 0.000000000E+00   0.000000000E+00   0.000000000E+00   1.000000000E+00   0.000000000E+00   0.000000000E+00
 0.000000000E+00   0.000000000E+00   0.000000000E+00   0.000000000E+00   1.000000000E+00   0.000000000E+00
 0.000000000E+00   0.000000000E+00   0.000000000E+00   0.000000000E+00   0.000000000E+00   1.000000000E+00
   11    4
    1.306439890E+03
    3.092531140E+02
    9.899627400E+01
    3.675691650E+01
    1.456665710E+01
    5.873993740E+00
    2.289099970E+01
    3.085500180E+00
    1.213232910E+00
    4.493168070E-01
    1.206750000E-01
 2.829280070E-03   0.000000000E+00   0.000000000E+00   0.000000000E+00
 2.277662920E-02   0.000000000E+00   0.000000000E+00   0.000000000E+00
 1.056456190E-01   0.000000000E+00   0.000000000E+00   0.000000000E+00
 2.994994490E-01   0.000000000E+00   0.000000000E+00   0.000000000E+00
 4.770624540E-01   0.000000000E+00   0.000000000E+00   0.000000000E+00
 2.765423440E-01   0.000000000E+00   0.000000000E+00   0.000000000E+00
 0.000000000E+00  -1.941210610E-02   0.000000000E+00   0.000000000E+00
 0.000000000E+00   3.861887580E-01   0.000000000E+00   0.000000000E+00
 0.000000000E+00   6.762390890E-01   0.000000000E+00   0.000000000E+00
 0.000000000E+00   0.000000000E+00   1.000000000E+00   0.000000000E+00
 0.000000000E+00   0.000000000E+00   0.000000000E+00   1.000000000E+00
    7    4
    4.372007450E+01
    1.239124270E+01
    4.263944200E+00
    1.552522180E+00
    5.376192950E-01
    1.649317310E-01
    5.100000000E-02
 2.209325930E-02   0.000000000E+00   0.000000000E+00   0.000000000E+00
 1.280143880E-01   0.000000000E+00   0.000000000E+00   0.000000000E+00
 3.865291030E-01   0.000000000E+00   0.000000000E+00   0.000000000E+00
 6.410330140E-01   0.000000000E+00   0.000000000E+00   0.000000000E+00
 0.000000000E+00   1.000000000E+00   0.000000000E+00   0.000000000E+00
 0.000000000E+00   0.000000000E+00   1.000000000E+00   0.000000000E+00
 0.000000000E+00   0.000000000E+00   0.000000000E+00   1.000000000E+00
    1    1
    1.147000000E+00
 1.000000000E+00
Cr1       0.00000000       0.00000000       0.00000000   Angstrom
End of basis set
Basis set
Cr...17s11p7d1f.6s4p4d1f.   / inline
     24.   3
   17    6
    2.544778070E+05
    3.813179710E+04
    8.675293060E+03
    2.455009980E+03
    7.991621780E+02
    2.869002150E+02
    1.112541320E+02
    4.386415260E+01
    2.793266920E+02
    8.627473240E+01
    1.355575610E+01
    5.697811280E+00
    8.563658260E+00
    1.398829680E+00
    5.728817110E-01
    9.009617130E-02
    3.412588510E-02
 2.429047760E-04   0.000000000E+00   0.000000000E+00   0.000000000E+00   0.000000000E+00   0.000000000E+00
 1.884352360E-03   0.000000000E+00   0.000000000E+00   0.000000000E+00   0.000000000E+00   0.000000000E+00
 9.800958440E-03   0.000000000E+00   0.000000000E+00   0.000000000E+00   0.000000000E+00   0.000000000E+00
 3.982500870E-02   0.000000000E+00   0.000000000E+00   0.000000000E+00   0.000000000E+00   0.000000000E+00
 1.294054370E-01   0.000000000E+00   0.000000000E+00   0.000000000E+00   0.000000000E+00   0.000000000E+00
 3.062900180E-01   0.000000000E+00   0.000000000E+00   0.000000000E+00   0.000000000E+00   0.000000000E+00
 4.346283500E-01   0.000000000E+00   0.000000000E+00   0.000000000E+00   0.000000000E+00   0.000000000E+00
 2.246956290E-01   0.000000000E+00   0.000000000E+00   0.000000000E+00   0.000000000E+00   0.000000000E+00
 0.000000000E+00  -2.436335790E-02   0.000000000E+00   0.000000000E+00   0.000000000E+00   0.000000000E+00
 0.000000000E+00  -1.151149540E-01   0.000000000E+00   0.000000000E+00   0.000000000E+00   0.000000000E+00
 0.000000000E+00   5.509226630E-01   0.000000000E+00   0.000000000E+00   0.000000000E+00   0.000000000E+00
 0.000000000E+00   5.361135470E-01   0.000000000E+00   0.000000000E+00   0.000000000E+00   0.000000000E+00
 0.000000000E+00   0.000000000E+00  -3.712301770E-01   0.000000000E+00   0.000000000E+00   0.000000000E+00
 0.000000000E+00   0.000000000E+00   1.168116950E+00   0.000000000E+00   0.000000000E+00   0.000000000E+00
 0.000000000E+00   0.000000000E+00   0.000000000E+00   1.000000000E+00   0.000000000E+00   0.000000000E+00
 0.000000000E+00   0.000000000E+00   0.000000000E+00   0.000000000E+00   1.000000000E+00   0.000000000E+00
 0.000000000E+00   0.000000000E+00   0.000000000E+00   0.000000000E+00   0.000000000E+00   1.000000000E+00
   11    4
    1.306439890E+03
    3.092531140E+02
    9.899627400E+01
    3.675691650E+01
    1.456665710E+01
    5.873993740E+00
    2.289099970E+01
    3.085500180E+00
    1.213232910E+00
    4.493168070E-01
    1.206750000E-01
 2.829280070E-03   0.000000000E+00   0.000000000E+00   0.000000000E+00
 2.277662920E-02   0.000000000E+00   0.000000000E+00   0.000000000E+00
 1.056456190E-01   0.000000000E+00   0.000000000E+00   0.000000000E+00
 2.994994490E-01   0.000000000E+00   0.000000000E+00   0.000000000E+00
 4.770624540E-01   0.000000000E+00   0.000000000E+00   0.000000000E+00
 2.765423440E-01   0.000000000E+00   0.000000000E+00   0.000000000E+00
 0.000000000E+00  -1.941210610E-02   0.000000000E+00   0.000000000E+00
 0.000000000E+00   3.861887580E-01   0.000000000E+00   0.000000000E+00
 0.000000000E+00   6.762390890E-01   0.000000000E+00   0.000000000E+00
 0.000000000E+00   0.000000000E+00   1.000000000E+00   0.000000000E+00
 0.000000000E+00   0.000000000E+00   0.000000000E+00   1.000000000E+00
    7    4
    4.372007450E+01
    1.239124270E+01
    4.263944200E+00
    1.552522180E+00
    5.376192950E-01
    1.649317310E-01
    5.100000000E-02
 2.209325930E-02   0.000000000E+00   0.000000000E+00   0.000000000E+00
 1.280143880E-01   0.000000000E+00   0.000000000E+00   0.000000000E+00
 3.865291030E-01   0.000000000E+00   0.000000000E+00   0.000000000E+00
 6.410330140E-01   0.000000000E+00   0.000000000E+00   0.000000000E+00
 0.000000000E+00   1.000000000E+00   0.000000000E+00   0.000000000E+00
 0.000000000E+00   0.000000000E+00   1.000000000E+00   0.000000000E+00
 0.000000000E+00   0.000000000E+00   0.000000000E+00   1.000000000E+00
    1    1
    1.147000000E+00
 1.000000000E+00
Cr2       0.00000000       0.00000000       3.00000001   Angstrom
End of basis set

&SEWARD

&RASSCF
Spin = 1
Charge = 0
nActEl = 12
RAS2 = 12
CIMX= 200
Tight= 5d-8 5d-6
SDav= 500
FILEORB = Cr2_30_uhf_SUHFNO_CASSCF.INPORB

-- ----------------------------------

--- Start Module: gateway at Mon Jul  5 15:39:06 2021 ---

()()()()()()()()()()()()()()()()()()()()()()()()()()()()()()()()()()()()()()()()()()()()()()()()()()

                                              &GATEWAY

                                   only a single process is used
                       available to each process: 12 GB of memory, 24 threads
                                             pid: 2396
()()()()()()()()()()()()()()()()()()()()()()()()()()()()()()()()()()()()()()()()()()()()()()()()()()


++    Symmetry information:
      ---------------------

                    Character Table for C1 

                             E  
                    a        1  x, y, xy, Rz, z, xz, Ry, yz, Rx, I
--


++    Basis set information:
      ----------------------


      Basis set label: CR...17S11P7D1F.6S4P4D1F........................................................

      Electronic valence basis set:
      ------------------
      Associated Effective Charge  24.000000 au
      Associated Actual Charge     24.000000 au
      Nuclear Model: Point charge

      Shell  nPrim  nBasis  Cartesian Spherical Contaminant
         s      17       6        X                  
         p      11       4        X                  
         d       7       4                 X         
         f       1       1                 X         


      Basis set label: CR...17S11P7D1F.6S4P4D1F........................................................

      Electronic valence basis set:
      ------------------
      Associated Effective Charge  24.000000 au
      Associated Actual Charge     24.000000 au
      Nuclear Model: Point charge

      Shell  nPrim  nBasis  Cartesian Spherical Contaminant
         s      17       6        X                  
         p      11       4        X                  
         d       7       4                 X         
         f       1       1                 X         
--


++    Molecular structure info:
      -------------------------

                    ************************************************ 
                    **** Cartesian Coordinates / Bohr, Angstrom **** 
                    ************************************************ 

     Center  Label                x              y              z                     x              y              z
        1      CR1              0.000000       0.000000       0.000000              0.000000       0.000000       0.000000
        2      CR2              0.000000       0.000000       5.669178              0.000000       0.000000       3.000000
--


            Nuclear Potential Energy            101.60202415 au

--- Stop Module: gateway at Mon Jul  5 15:39:07 2021 /rc=_RC_ALL_IS_WELL_ ---
*** files: xmldump
    saved to directory /share/home/srwang/automr_inputlibrary/suhf_vs_gvb/Cr2_30_om

--- Start Module: seward at Mon Jul  5 15:39:07 2021 ---

()()()()()()()()()()()()()()()()()()()()()()()()()()()()()()()()()()()()()()()()()()()()()()()()()()

                                              &SEWARD

                                   only a single process is used
                       available to each process: 12 GB of memory, 24 threads
                                             pid: 2399
()()()()()()()()()()()()()()()()()()()()()()()()()()()()()()()()()()()()()()()()()()()()()()()()()()

               SEWARD will generate:
                  Multipole Moment integrals up to order  2
                  Kinetic Energy integrals
                  Nuclear Attraction integrals (point charge)
                  One-Electron Hamiltonian integrals
                  Velocity integrals
                  Orbital angular momentum around ( 0.0000  0.0000  2.8346 )
                  Velocity quadrupole around ( 0.0000  0.0000  2.8346 )
                  Two-Electron Repulsion integrals

                   Integrals are discarded if absolute value <: 0.10E-13
                   Integral cutoff threshold is set to       <: 0.10E-15

            Nuclear Potential Energy            101.60202415 au


      Basis set specifications :
      Symmetry species         a  
      Basis functions           90


  Input file to MOLDEN was generated!

--- Stop Module: seward at Mon Jul  5 15:39:10 2021 /rc=_RC_ALL_IS_WELL_ ---
*** files: Cr2_30_uhf_SUHFNO_CASSCF.GssOrb Cr2_30_uhf_SUHFNO_CASSCF.guessorb.h5 Cr2_30_uhf_SUHFNO_CASSCF.guessorb.molden xmldump
    saved to directory /share/home/srwang/automr_inputlibrary/suhf_vs_gvb/Cr2_30_om
--- Module seward spent 3 seconds ---

*** symbolic link created: INPORB -> Cr2_30_uhf_SUHFNO_CASSCF.GssOrb
--- Start Module: rasscf at Mon Jul  5 15:39:10 2021 ---

()()()()()()()()()()()()()()()()()()()()()()()()()()()()()()()()()()()()()()()()()()()()()()()()()()

                                              &RASSCF

                                   only a single process is used
                       available to each process: 12 GB of memory, 24 threads
                                             pid: 8136
()()()()()()()()()()()()()()()()()()()()()()()()()()()()()()()()()()()()()()()()()()()()()()()()()()


      Header of the ONEINT file:
      --------------------------
      
      Integrals generated by Gateway/Seward, Mon Jul  5 15:39:07 2021


      OrdInt status: non-squared


      Cartesian coordinates in Angstrom:
      -----------------------------------------------------
      No.  Label        X            Y            Z        
      -----------------------------------------------------
       1   CR1        0.00000000   0.00000000   0.00000000
       2   CR2        0.00000000   0.00000000   3.00000001
      -----------------------------------------------------
      Nuclear repulsion energy =  101.60202415

++    Wave function specifications:
      -----------------------------

      Number of closed shell electrons          36
      Number of electrons in active shells      12
      Max number of holes in RAS1 space          0
      Max nr of electrons in RAS3 space          0
      Number of inactive orbitals               18
      Number of active orbitals                 12
      Number of secondary orbitals              60
      Spin quantum number                      0.0
      State symmetry                             1
--

++    Orbital specifications:
      -----------------------

      Symmetry species                           1
                                                 a
      Frozen orbitals                            0
      Inactive orbitals                         18
      Active orbitals                           12
      RAS1 orbitals                              0
      RAS2 orbitals                             12
      RAS3 orbitals                              0
      Secondary orbitals                        60
      Deleted orbitals                           0
      Number of basis functions                 90
--

++    CI expansion specifications:
      ----------------------------

      Number of CSFs                        226512
      Number of determinants                427350
      Number of root(s) required                 1
      Root chosen for geometry opt.              1
      CI root used                               1
         
      highest root included in the CI            1
      max. size of the explicit Hamiltonian    500
--

++    Optimization specifications:
      ----------------------------

      RASSCF algorithm: Conventional
      Maximum number of macro iterations       200
      Maximum number of SX iterations          100
      Threshold for RASSCF energy            0.100E-07
      Threshold for max MO rotation          0.100E+00
      Threshold for max BLB element          0.100E-03
      Level shift parameter                  0.500E+00
      Make Quasi-Newton update
--

      The MO-coefficients are taken from the file:
      /share/home/srwang/automr_inputlibrary/suhf_vs_gvb/Cr2_30_om/Cr2_30_uhf_SUHFNO_CASSCF.INPORB                                    
      Title: SCF orbitals                                                                  

      Total molecular charge    0.00

      ************************************************************************************************************************
      *                                                                                                                      *
      *                                            Wave function control section                                             *
      *                                                                                                                      *
      ************************************************************************************************************************


                                         RASSCF iterations: Energy and convergence statistics
                                         ----------------------------------------------------

      Iter CI   SX   CI       RASSCF       Energy    max ROT     max BLB   max BLB  Level Ln srch  Step   QN   Walltime
          iter iter root      energy       change     param      element    value   shift minimum  type update hh:mm:ss
 Nr of preliminary CI iterations: 166
      Total energies have been shifted. Add                -2000.00 au
        1   1   19    1   -86.67264491    0.00E+00   0.50E-02   19  43 1 -0.14E-02*  0.22   0.00    SX    NO    0:03:58
        2  14   16    1   -86.67267279   -0.28E-04*  0.27E-02   30  44 1  0.59E-03*  0.22   0.00    SX    NO    0:00:21
        3  12   15    1   -86.67267885   -0.61E-05*  0.16E-02   30  44 1  0.33E-03*  0.22   0.00    SX    NO    0:00:19
        4  16   15    1   -86.67268069   -0.18E-05* -0.89E-03   30  44 1  0.20E-03*  0.22   0.00    SX    NO    0:00:22
        5  12   15    1   -86.67268134   -0.65E-06*  0.16E-02   19  43 1  0.13E-03*  0.22   1.58    QN   YES    0:00:20
        6  16   13    1   -86.67268181   -0.46E-06* -0.91E-04   19  43 1  0.57E-04   0.22   0.98    QN   YES    0:00:21
        7   1   10    1   -86.67268184   -0.30E-07*  0.12E-03   19  43 1  0.39E-04   0.22   1.93    QN   YES    0:00:11
        8   4    9    1   -86.67268185   -0.15E-07*  0.19E-04   16  36 1  0.62E-05   0.22   1.04    QN   YES    0:00:14
        9   1    7    1   -86.67268185   -0.38E-09  -0.40E-05   19  48 1 -0.19E-05   0.22   1.12    QN   YES    0:00:12
      Convergence after  9 iterations
       10   1    7    1   -86.67268185   -0.64E-10  -0.40E-05   19  46 1  0.13E-05   0.22   1.12    QN   YES    0:00:13

      ************************************************************************************************************************
                                                      Wave function printout:
                       occupation of active orbitals, and spin coupling of open shells (u,d: Spin up or down)
      ************************************************************************************************************************

      Note: transformation to natural orbitals
      has been made, which may change the order of the CSFs.

      printout of CI-coefficients larger than  0.05 for root  1
      energy=   -2086.672682
      conf/sym  111111111111     Coeff  Weight
             1  222222000000  -0.08036 0.00646
            38  222220200000   0.07806 0.00609
            60  2222udud0000  -0.07805 0.00609
            83  222u2du0d000  -0.07411 0.00549
           107  22u22du00d00   0.07411 0.00549
           132  2u222du000d0   0.07381 0.00545
           166  222202020000   0.07806 0.00609
           189  222ud20ud000   0.07411 0.00549
           213  22u2d20u0d00  -0.07411 0.00549
           238  2u22d20u00d0  -0.07381 0.00545
           274  222022002000   0.07072 0.00500
           298  22ud2200ud00  -0.07064 0.00499
           323  2u2d2200u0d0  -0.07030 0.00494
           362  220222000200   0.07072 0.00500
           387  2ud222000ud0   0.07030 0.00494
           430  202222000020   0.07009 0.00491
          5604  222200220000  -0.07586 0.00575
          5710  222ud02ud000  -0.07207 0.00519
          5820  22u2d02u0d00   0.07207 0.00519
          5939  2u22d02u00d0   0.07179 0.00515
          6132  222020202000  -0.06883 0.00474
          6242  22ud2020ud00   0.06874 0.00473
          6361  2u2d2020u0d0   0.06843 0.00468
          6563  220220200200  -0.06883 0.00474
          6682  2ud220200ud0  -0.06843 0.00468
          6904  202220200020  -0.06823 0.00466
          7181  222u0du2d000   0.07207 0.00519
          7291  22u20du20d00  -0.07207 0.00519
          7410  2u220du200d0  -0.07179 0.00515
          7603  2220udud2000   0.06882 0.00474
          7713  22udududud00  -0.06874 0.00473
          7832  2u2dududu0d0  -0.06843 0.00468
          8034  2202udud0200   0.06882 0.00474
          8153  2ud2udud0ud0   0.06843 0.00468
          8375  2022udud0020   0.06823 0.00466
          8660  22uudduudd00  -0.06849 0.00469
          8779  2u2udduud0d0  -0.06830 0.00467
          8998  2uu2dduu0dd0   0.06830 0.00467
          9291  22u02du02d00  -0.06555 0.00430
          9410  2u202du020d0  -0.06538 0.00427
          9611  220u2du0d200   0.06555 0.00430
          9730  2udu2du0dud0   0.06522 0.00425
          9952  202u2du0d020   0.06506 0.00423
         10259  2uud2du0udd0   0.06528 0.00426
         10576  2u022du002d0  -0.06538 0.00427
         10795  20u22du00d20  -0.06506 0.00423
         11384  222002022000  -0.06883 0.00474
         11494  22ud0202ud00   0.06874 0.00473
         11613  2u2d0202u0d0   0.06843 0.00468
         11815  220202020200  -0.06883 0.00474
         11934  2ud202020ud0  -0.06843 0.00468
         12156  202202020020  -0.06823 0.00466
         12442  22u0d20u2d00   0.06555 0.00430
         12561  2u20d20u20d0   0.06538 0.00427
         12762  220ud20ud200  -0.06555 0.00430
         12881  2udud20udud0  -0.06522 0.00425
         13103  202ud20ud020  -0.06506 0.00423
         13410  2uudd20uudd0  -0.06528 0.00426
         13727  2u02d20u02d0   0.06538 0.00427
         13946  20u2d20u0d20   0.06506 0.00423
         14548  220022002200  -0.06277 0.00394
         14667  2ud022002ud0  -0.06249 0.00390
         14889  202022002020  -0.06238 0.00389
         15198  2u0d2200u2d0   0.06249 0.00390
         15417  20ud2200ud20   0.06231 0.00388
         16048  200222000220  -0.06238 0.00389
         72154  222000222000   0.06702 0.00449
         72330  22ud0022ud00  -0.06694 0.00448
         72514  2u2d0022u0d0  -0.06665 0.00444
         72858  220200220200   0.06702 0.00449
         73042  2ud200220ud0   0.06665 0.00444
         73409  202200220020   0.06646 0.00442
         73906  22u0d02u2d00  -0.06388 0.00408
         74090  2u20d02u20d0  -0.06373 0.00406
         74434  220ud02ud200   0.06388 0.00408
         74618  2udud02udud0   0.06356 0.00404
         74985  202ud02ud020   0.06342 0.00402
         75498  2uudd02uudd0   0.06362 0.00405
         76026  2u02d02u02d0  -0.06373 0.00406
         76390  20u2d02u0d20  -0.06342 0.00402
         77411  220020202200   0.06122 0.00375
         77595  2ud020202ud0   0.06095 0.00371
         77962  202020202020   0.06085 0.00370
         78478  2u0d2020u2d0  -0.06095 0.00371
         78842  20ud2020ud20  -0.06078 0.00369
         79898  200220200220   0.06085 0.00370
         80907  22u00du22d00   0.06388 0.00408
         81091  2u200du220d0   0.06373 0.00406
         81435  220u0du2d200  -0.06388 0.00408
         81619  2udu0du2dud0  -0.06356 0.00404
         81986  202u0du2d020  -0.06342 0.00402
         82499  2uud0du2udd0  -0.06362 0.00405
         83027  2u020du202d0   0.06373 0.00406
         83391  20u20du20d20   0.06342 0.00402
         84412  2200udud2200  -0.06121 0.00375
         84596  2ud0udud2ud0  -0.06095 0.00371
         84963  2020udud2020  -0.06085 0.00370
         85479  2u0dududu2d0   0.06095 0.00371
         85843  20udududud20   0.06078 0.00369
         86899  2002udud0220  -0.06085 0.00370
         87925  2uu0dduu2dd0  -0.06083 0.00370
         88456  2u0udduud2d0   0.06083 0.00370
         88820  20uudduudd20   0.06055 0.00367
         90557  2u002du022d0   0.05844 0.00341
         90921  20u02du02d20   0.05823 0.00339
         91976  200u2du0d220  -0.05823 0.00339
         94038  220002022200   0.06122 0.00375
         94222  2ud002022ud0   0.06095 0.00371
         94589  202002022020   0.06085 0.00370
         95105  2u0d0202u2d0  -0.06095 0.00371
         95469  20ud0202ud20  -0.06078 0.00369
         96525  200202020220   0.06085 0.00370
         97558  2u00d20u22d0  -0.05844 0.00341
         97922  20u0d20u2d20  -0.05823 0.00339
         98977  200ud20ud220   0.05823 0.00339
        101078  200022002220   0.05603 0.00314
        189881  220000222200  -0.05974 0.00357
        189987  2ud000222ud0  -0.05949 0.00354
        190201  202000222020  -0.05940 0.00353
        190513  2u0d0022u2d0   0.05949 0.00354
        190727  20ud0022ud20   0.05933 0.00352
        191360  200200220220  -0.05940 0.00353
        191984  2u00d02u22d0   0.05708 0.00326
        192198  20u0d02u2d20   0.05689 0.00324
        192831  200ud02ud220  -0.05689 0.00324
        194093  200020202220  -0.05479 0.00300
        195135  2u000du222d0  -0.05708 0.00326
        195349  20u00du22d20  -0.05689 0.00324
        195982  200u0du2d220   0.05689 0.00324
        197244  2000udud2220   0.05479 0.00300
        199345  200002022220  -0.05479 0.00300
        225148  200000222220   0.05360 0.00287

      Natural orbitals and occupation numbers for root  1
      sym 1:   1.652953   1.071775   1.068172   1.068172   1.015074   1.015074   0.984926   0.984926   0.931832   0.931832
               0.928430   0.346833

      ************************************************************************************************************************
      *                                                                                                                      *
      *                                                    Final results                                                     *
      *                                                                                                                      *
      ************************************************************************************************************************


++    Wave function specifications:
      -----------------------------

      Number of closed shell electrons          36
      Number of electrons in active shells      12
      Max number of holes in RAS1 space          0
      Max nr of electrons in RAS3 space          0
      Number of inactive orbitals               18
      Number of active orbitals                 12
      Number of secondary orbitals              60
      Spin quantum number                      0.0
      State symmetry                             1
--

++    Orbital specifications:
      -----------------------

      Symmetry species                           1
                                                 a
      Frozen orbitals                            0
      Inactive orbitals                         18
      Active orbitals                           12
      RAS1 orbitals                              0
      RAS2 orbitals                             12
      RAS3 orbitals                              0
      Secondary orbitals                        60
      Deleted orbitals                           0
      Number of basis functions                 90
--

++    CI expansion specifications:
      ----------------------------

      Number of CSFs                        226512
      Number of determinants                427350
      Number of root(s) required                 1
      CI root used                               1
      highest root included in the CI            1
      Root passed to geometry opt.               1
--

++    Final optimization conditions:
      ------------------------------

      Average CI energy                           -2086.67268185
      RASSCF energy for state  1                  -2086.67268185
      Super-CI energy                                -0.00000000
      RASSCF energy change                            0.00000000
      Max change in MO coefficients               0.240E-04
      Max non-diagonal density matrix element    -0.405E-05
      Maximum BLB matrix element                  0.125E-05
      (orbital pair  19,  46 in symmetry   1)
      Norm of electronic gradient            0.362E-05
--


      Final state energy(ies):
      ------------------------

::    RASSCF root number  1 Total energy:  -2086.67268185

++    Molecular orbitals:
      -------------------

      Pseudonatural active orbitals and approximate occupation numbers




      Molecular orbitals for symmetry species 1: a  


      Orbital                 1         2         3         4         5         6         7         8         9        10
      Energy          -220.3836 -220.3836  -26.2082  -26.2082  -22.1383  -22.1383  -22.1381  -22.1381  -22.1381  -22.1381
      Occ. No.           2.0000    2.0000    2.0000    2.0000    2.0000    2.0000    2.0000    2.0000    2.0000    2.0000

     1 CR1    1s         0.6981    0.7129   -0.2201   -0.2211   -0.0000   -0.0001    0.0000    0.0000   -0.0000   -0.0000
     2 CR1    1s         0.0049    0.0050    0.7317    0.7348    0.0001    0.0002   -0.0000   -0.0000    0.0000    0.0000
     3 CR1    1s        -0.0016   -0.0016    0.0236    0.0234   -0.0000    0.0002    0.0000   -0.0000    0.0000    0.0000
     4 CR1    1s         0.0011    0.0010   -0.0065   -0.0061    0.0002   -0.0004   -0.0000    0.0000   -0.0000    0.0000
     5 CR1    1s        -0.0005   -0.0003    0.0024    0.0017   -0.0006    0.0007    0.0000   -0.0000    0.0000   -0.0000
     6 CR1    1s         0.0002    0.0001   -0.0007   -0.0005   -0.0000    0.0006   -0.0000   -0.0000    0.0000   -0.0000
     7 CR1    2px       -0.0000   -0.0000   -0.0000   -0.0000   -0.0000   -0.0000   -0.5973   -0.3440    0.6212    0.3514
     8 CR1    2px       -0.0000    0.0000   -0.0000   -0.0000   -0.0000   -0.0000   -0.0131   -0.0075    0.0135    0.0077
     9 CR1    2px        0.0000    0.0000    0.0000   -0.0000    0.0000    0.0000    0.0027    0.0016   -0.0027   -0.0015
    10 CR1    2px       -0.0000   -0.0000   -0.0000    0.0000   -0.0000   -0.0000   -0.0010   -0.0006    0.0007    0.0004
    11 CR1    2py       -0.0000   -0.0000   -0.0000   -0.0000   -0.0000   -0.0000    0.3439   -0.5973   -0.3515    0.6211
    12 CR1    2py       -0.0000   -0.0000   -0.0000   -0.0000   -0.0000   -0.0000    0.0075   -0.0131   -0.0077    0.0135
    13 CR1    2py        0.0000    0.0000   -0.0000   -0.0000    0.0000    0.0000   -0.0016    0.0027    0.0015   -0.0027
    14 CR1    2py       -0.0000   -0.0000   -0.0000    0.0000   -0.0000   -0.0000    0.0006   -0.0010   -0.0004    0.0007
    15 CR1    2pz        0.0000   -0.0000   -0.0002   -0.0002    0.5138    0.8487   -0.0000   -0.0000    0.0000    0.0000
    16 CR1    2pz       -0.0000   -0.0000    0.0001   -0.0000    0.0112    0.0186   -0.0000   -0.0000    0.0000    0.0000
    17 CR1    2pz        0.0001   -0.0000   -0.0003   -0.0000   -0.0023   -0.0041    0.0000    0.0000   -0.0000   -0.0000
    18 CR1    2pz       -0.0002    0.0000    0.0010   -0.0001    0.0003    0.0023   -0.0000   -0.0000    0.0000    0.0000
    19 CR1    3d2-      -0.0000   -0.0000   -0.0000   -0.0000    0.0000    0.0000    0.0000    0.0000    0.0000   -0.0000
    20 CR1    3d2-       0.0000   -0.0000    0.0000    0.0000    0.0000   -0.0000   -0.0000   -0.0000    0.0000   -0.0000
    21 CR1    3d2-      -0.0000    0.0000   -0.0000   -0.0000   -0.0000    0.0000   -0.0000    0.0000   -0.0000    0.0000
    22 CR1    3d2-      -0.0000    0.0000    0.0000    0.0000   -0.0000   -0.0000   -0.0000    0.0000   -0.0000   -0.0000
    23 CR1    3d1-      -0.0000   -0.0000   -0.0000   -0.0000    0.0000    0.0000   -0.0000    0.0000    0.0000   -0.0000
    24 CR1    3d1-      -0.0000    0.0000   -0.0000    0.0000    0.0000   -0.0000    0.0000   -0.0000    0.0000   -0.0000
    25 CR1    3d1-       0.0000    0.0000   -0.0000   -0.0000   -0.0000   -0.0000    0.0000   -0.0000   -0.0000    0.0000
    26 CR1    3d1-      -0.0000   -0.0000   -0.0000    0.0000    0.0000   -0.0000    0.0002   -0.0003    0.0000   -0.0001
    27 CR1    3d0       -0.0000   -0.0000    0.0000    0.0000   -0.0000    0.0000    0.0000   -0.0000   -0.0000    0.0000
    28 CR1    3d0        0.0000    0.0000   -0.0001   -0.0000   -0.0001   -0.0001    0.0000    0.0000   -0.0000   -0.0000
    29 CR1    3d0       -0.0001   -0.0000    0.0006    0.0001   -0.0000    0.0005   -0.0000   -0.0000    0.0000   -0.0000
    30 CR1    3d0       -0.0000    0.0000    0.0001   -0.0001    0.0001    0.0003   -0.0000   -0.0000   -0.0000    0.0000
    31 CR1    3d1+      -0.0000   -0.0000   -0.0000    0.0000   -0.0000    0.0000    0.0000    0.0000   -0.0000   -0.0000
    32 CR1    3d1+       0.0000    0.0000    0.0000   -0.0000    0.0000    0.0000   -0.0000   -0.0000   -0.0000   -0.0000
    33 CR1    3d1+      -0.0000   -0.0000   -0.0000    0.0000    0.0000   -0.0000   -0.0000   -0.0000    0.0000    0.0000
    34 CR1    3d1+       0.0000   -0.0000   -0.0000   -0.0000   -0.0000   -0.0000   -0.0003   -0.0002   -0.0001   -0.0000
    35 CR1    3d2+       0.0000    0.0000    0.0000    0.0000   -0.0000   -0.0000   -0.0000    0.0000   -0.0000    0.0000
    36 CR1    3d2+       0.0000   -0.0000   -0.0000   -0.0000   -0.0000   -0.0000    0.0000   -0.0000    0.0000   -0.0000
    37 CR1    3d2+      -0.0000    0.0000    0.0000    0.0000    0.0000   -0.0000   -0.0000   -0.0000   -0.0000    0.0000
    38 CR1    3d2+       0.0000   -0.0000    0.0000   -0.0000    0.0000   -0.0000    0.0000    0.0000    0.0000    0.0000
    39 CR1    4f3-      -0.0000   -0.0000   -0.0000    0.0000   -0.0000    0.0000    0.0000   -0.0000    0.0000    0.0000
    40 CR1    4f2-      -0.0000   -0.0000   -0.0000   -0.0000   -0.0000    0.0000    0.0000   -0.0000   -0.0000   -0.0000
    41 CR1    4f1-       0.0000    0.0000    0.0000    0.0000   -0.0000   -0.0000    0.0000   -0.0000    0.0000   -0.0000
    42 CR1    4f0       -0.0000    0.0000    0.0000   -0.0000   -0.0000    0.0000   -0.0000    0.0000   -0.0000    0.0000
    43 CR1    4f1+      -0.0000    0.0000   -0.0000    0.0000   -0.0000    0.0000   -0.0000   -0.0000   -0.0000   -0.0000
    44 CR1    4f2+      -0.0000   -0.0000   -0.0000   -0.0000   -0.0000    0.0000    0.0000    0.0000   -0.0000    0.0000
    45 CR1    4f3+       0.0000   -0.0000    0.0000   -0.0000    0.0000   -0.0000    0.0000   -0.0000    0.0000    0.0000
    46 CR2    1s        -0.7129    0.6981    0.2210   -0.2201   -0.0001    0.0000    0.0000   -0.0000    0.0000   -0.0000
    47 CR2    1s        -0.0050    0.0049   -0.7348    0.7317    0.0002   -0.0002   -0.0000    0.0000   -0.0000    0.0000
    48 CR2    1s         0.0017   -0.0016   -0.0237    0.0233    0.0000   -0.0002   -0.0000    0.0000   -0.0000    0.0000
    49 CR2    1s        -0.0012    0.0010    0.0065   -0.0061   -0.0000    0.0004   -0.0000   -0.0000    0.0000   -0.0000
    50 CR2    1s         0.0005   -0.0003   -0.0024    0.0017   -0.0002   -0.0009    0.0000    0.0000   -0.0000   -0.0000
    51 CR2    1s        -0.0002    0.0001    0.0007   -0.0005    0.0003   -0.0006   -0.0000    0.0000   -0.0000    0.0000
    52 CR2    2px       -0.0000    0.0000   -0.0000    0.0000   -0.0000    0.0000    0.6185    0.3561    0.5999    0.3394
    53 CR2    2px        0.0000   -0.0000   -0.0000    0.0000   -0.0000    0.0000    0.0135    0.0078    0.0131    0.0074
    54 CR2    2px        0.0000   -0.0000   -0.0000    0.0000    0.0000   -0.0000   -0.0028   -0.0016   -0.0026   -0.0014
    55 CR2    2px       -0.0000   -0.0000    0.0000   -0.0000   -0.0000    0.0000    0.0010    0.0006    0.0007    0.0004
    56 CR2    2py       -0.0000    0.0000    0.0000   -0.0000   -0.0000    0.0000   -0.3562    0.6184   -0.3394    0.5999
    57 CR2    2py        0.0000   -0.0000   -0.0000    0.0000   -0.0000    0.0000   -0.0078    0.0135   -0.0074    0.0131
    58 CR2    2py       -0.0000    0.0000    0.0000   -0.0000    0.0000   -0.0000    0.0016   -0.0028    0.0014   -0.0026
    59 CR2    2py        0.0000    0.0000    0.0000   -0.0000   -0.0000    0.0000   -0.0006    0.0010   -0.0004    0.0007
    60 CR2    2pz        0.0000    0.0000   -0.0002    0.0001   -0.8487    0.5138    0.0000   -0.0000    0.0000   -0.0000
    61 CR2    2pz       -0.0000    0.0000    0.0001    0.0000   -0.0186    0.0113    0.0000   -0.0000    0.0000   -0.0000
    62 CR2    2pz        0.0001    0.0000   -0.0003    0.0000    0.0039   -0.0026   -0.0000    0.0000   -0.0000    0.0000
    63 CR2    2pz       -0.0002   -0.0000    0.0010    0.0001   -0.0013    0.0019    0.0000   -0.0000    0.0000   -0.0000
    64 CR2    3d2-      -0.0000   -0.0000    0.0000   -0.0000    0.0000   -0.0000    0.0000   -0.0000    0.0000   -0.0000
    65 CR2    3d2-      -0.0000    0.0000   -0.0000    0.0000   -0.0000   -0.0000   -0.0000    0.0000   -0.0000    0.0000
    66 CR2    3d2-       0.0000   -0.0000    0.0000   -0.0000   -0.0000    0.0000   -0.0000   -0.0000    0.0000    0.0000
    67 CR2    3d2-       0.0000    0.0000   -0.0000    0.0000   -0.0000    0.0000    0.0000   -0.0000   -0.0000    0.0000
    68 CR2    3d1-       0.0000    0.0000   -0.0000    0.0000   -0.0000    0.0000   -0.0000    0.0000   -0.0000    0.0000
    69 CR2    3d1-      -0.0000   -0.0000   -0.0000   -0.0000    0.0000    0.0000    0.0000   -0.0000   -0.0000    0.0000
    70 CR2    3d1-       0.0000    0.0000    0.0000    0.0000    0.0000   -0.0000    0.0000   -0.0000    0.0000   -0.0000
    71 CR2    3d1-      -0.0000   -0.0000   -0.0000    0.0000    0.0000   -0.0000    0.0002   -0.0003   -0.0001    0.0001
    72 CR2    3d0        0.0000   -0.0000   -0.0000    0.0000   -0.0000   -0.0000    0.0000    0.0000   -0.0000    0.0000
    73 CR2    3d0       -0.0000    0.0000    0.0001   -0.0000   -0.0001    0.0000    0.0000   -0.0000   -0.0000   -0.0000
    74 CR2    3d0        0.0001   -0.0000   -0.0006    0.0001    0.0002   -0.0005   -0.0000    0.0000   -0.0000    0.0000
    75 CR2    3d0        0.0000    0.0000   -0.0001   -0.0001    0.0002   -0.0002    0.0000    0.0000   -0.0000    0.0000
    76 CR2    3d1+       0.0000    0.0000   -0.0000   -0.0000    0.0000   -0.0000    0.0000    0.0000    0.0000    0.0000
    77 CR2    3d1+      -0.0000   -0.0000    0.0000   -0.0000   -0.0000    0.0000   -0.0000   -0.0000    0.0000    0.0000
    78 CR2    3d1+      -0.0000   -0.0000   -0.0000    0.0000    0.0000   -0.0000   -0.0000   -0.0000   -0.0000   -0.0000
    79 CR2    3d1+       0.0000    0.0000   -0.0000    0.0000   -0.0000   -0.0000   -0.0003   -0.0002    0.0001    0.0001
    80 CR2    3d2+       0.0000    0.0000   -0.0000    0.0000    0.0000   -0.0000    0.0000   -0.0000   -0.0000   -0.0000
    81 CR2    3d2+      -0.0000   -0.0000   -0.0000   -0.0000   -0.0000    0.0000    0.0000    0.0000   -0.0000   -0.0000
    82 CR2    3d2+      -0.0000   -0.0000    0.0000    0.0000    0.0000    0.0000   -0.0000   -0.0000    0.0000    0.0000
    83 CR2    3d2+       0.0000    0.0000   -0.0000   -0.0000   -0.0000    0.0000   -0.0000   -0.0000    0.0000   -0.0000
    84 CR2    4f3-       0.0000   -0.0000    0.0000    0.0000   -0.0000   -0.0000    0.0000   -0.0000    0.0000   -0.0000
    85 CR2    4f2-      -0.0000    0.0000    0.0000   -0.0000   -0.0000    0.0000    0.0000   -0.0000   -0.0000   -0.0000
    86 CR2    4f1-      -0.0000    0.0000   -0.0000   -0.0000   -0.0000    0.0000   -0.0000    0.0000    0.0000   -0.0000
    87 CR2    4f0       -0.0000   -0.0000    0.0000    0.0000   -0.0000    0.0000   -0.0000    0.0000    0.0000   -0.0000
    88 CR2    4f1+      -0.0000   -0.0000   -0.0000   -0.0000    0.0000    0.0000    0.0000    0.0000   -0.0000   -0.0000
    89 CR2    4f2+       0.0000    0.0000    0.0000    0.0000    0.0000   -0.0000   -0.0000    0.0000    0.0000   -0.0000
    90 CR2    4f3+      -0.0000    0.0000   -0.0000   -0.0000    0.0000    0.0000   -0.0000    0.0000   -0.0000   -0.0000


      Orbital                11        12        13        14        15        16        17        18        19        20
      Energy            -3.2835   -3.2833   -2.0510   -2.0489   -2.0489   -2.0485   -2.0485   -2.0478    0.0000    0.0000
      Occ. No.           2.0000    2.0000    2.0000    2.0000    2.0000    2.0000    2.0000    2.0000    1.6530    1.0718

     1 CR1    1s         0.0792    0.0792   -0.0001    0.0000    0.0000    0.0000    0.0000   -0.0003    0.0170   -0.0025
     2 CR1    1s        -0.3137   -0.3137    0.0002   -0.0000   -0.0000   -0.0000   -0.0000    0.0011   -0.0591    0.0084
     3 CR1    1s         0.4489    0.4492   -0.0014    0.0000    0.0000    0.0000    0.0000   -0.0024    0.1304   -0.0204
     4 CR1    1s         0.3310    0.3305    0.0015    0.0000    0.0000   -0.0000    0.0000   -0.0015    0.1783   -0.0277
     5 CR1    1s         0.0103    0.0120   -0.0018   -0.0000   -0.0000    0.0000   -0.0000    0.0040   -0.3448    0.0669
     6 CR1    1s        -0.0033   -0.0038    0.0001    0.0000    0.0000   -0.0000   -0.0000    0.0011   -0.3080    0.0772
     7 CR1    2px        0.0000    0.0000   -0.0000   -0.2118    0.1437   -0.1776    0.1844    0.0000   -0.0000   -0.0000
     8 CR1    2px       -0.0000   -0.0000    0.0000    0.5061   -0.3433    0.4244   -0.4406   -0.0000   -0.0000    0.0000
     9 CR1    2px       -0.0000   -0.0000    0.0000    0.1555   -0.1055    0.1306   -0.1356   -0.0000    0.0000   -0.0000
    10 CR1    2px        0.0000    0.0000    0.0000    0.0043   -0.0030    0.0029   -0.0030   -0.0000   -0.0000    0.0000
    11 CR1    2py        0.0000    0.0000    0.0000   -0.1437   -0.2118   -0.1844   -0.1776   -0.0000   -0.0000   -0.0000
    12 CR1    2py       -0.0000   -0.0000   -0.0000    0.3433    0.5061    0.4406    0.4244    0.0000    0.0000    0.0000
    13 CR1    2py       -0.0000   -0.0000   -0.0000    0.1055    0.1555    0.1356    0.1306    0.0000    0.0000    0.0000
    14 CR1    2py       -0.0000   -0.0000   -0.0000    0.0030    0.0043    0.0030    0.0029    0.0000   -0.0000   -0.0000
    15 CR1    2pz        0.0004    0.0005    0.2556   -0.0000   -0.0000    0.0000   -0.0000    0.2563   -0.0125   -0.0036
    16 CR1    2pz       -0.0008   -0.0009   -0.6104    0.0000    0.0000   -0.0000    0.0000   -0.6122    0.0340    0.0095
    17 CR1    2pz       -0.0010   -0.0014   -0.1882    0.0000    0.0000   -0.0000    0.0000   -0.1892    0.0122    0.0049
    18 CR1    2pz       -0.0001    0.0020   -0.0057   -0.0000   -0.0000   -0.0000    0.0000   -0.0004   -0.0328   -0.0066
    19 CR1    3d2-      -0.0000   -0.0000    0.0000   -0.0000   -0.0000   -0.0000    0.0000   -0.0000   -0.0000    0.0000
    20 CR1    3d2-      -0.0000   -0.0000   -0.0000   -0.0000   -0.0000   -0.0000   -0.0000    0.0000   -0.0000    0.0000
    21 CR1    3d2-      -0.0000   -0.0000    0.0000   -0.0000    0.0000   -0.0000    0.0000   -0.0000   -0.0000    0.0000
    22 CR1    3d2-       0.0000   -0.0000   -0.0000    0.0000   -0.0000   -0.0000   -0.0000    0.0000   -0.0000    0.0000
    23 CR1    3d1-       0.0000    0.0000    0.0000   -0.0003   -0.0004   -0.0005   -0.0005    0.0000   -0.0000   -0.0000
    24 CR1    3d1-       0.0000    0.0000    0.0000   -0.0004   -0.0007   -0.0006   -0.0006    0.0000   -0.0000   -0.0000
    25 CR1    3d1-      -0.0000   -0.0000   -0.0000    0.0001    0.0002   -0.0002   -0.0002   -0.0000    0.0000   -0.0000
    26 CR1    3d1-       0.0000   -0.0000   -0.0000    0.0001    0.0001   -0.0005   -0.0005   -0.0000    0.0000    0.0000
    27 CR1    3d0        0.0001    0.0001    0.0008   -0.0000   -0.0000    0.0000   -0.0000    0.0010   -0.0676   -0.4190
    28 CR1    3d0       -0.0002   -0.0000    0.0002    0.0000    0.0000    0.0000   -0.0000    0.0007   -0.0463   -0.2801
    29 CR1    3d0        0.0004    0.0008   -0.0007   -0.0000   -0.0000    0.0000   -0.0000    0.0020   -0.0323   -0.1638
    30 CR1    3d0       -0.0005    0.0005    0.0004   -0.0000   -0.0000   -0.0000   -0.0000    0.0005    0.0041   -0.0144
    31 CR1    3d1+      -0.0000   -0.0000    0.0000   -0.0004    0.0003   -0.0005    0.0005    0.0000   -0.0000    0.0000
    32 CR1    3d1+      -0.0000    0.0000    0.0000   -0.0007    0.0004   -0.0006    0.0006    0.0000    0.0000    0.0000
    33 CR1    3d1+      -0.0000   -0.0000    0.0000    0.0002   -0.0001   -0.0002    0.0002    0.0000   -0.0000    0.0000
    34 CR1    3d1+       0.0000    0.0000    0.0000    0.0001   -0.0001   -0.0005    0.0005    0.0000    0.0000   -0.0000
    35 CR1    3d2+       0.0000    0.0000    0.0000   -0.0000    0.0000   -0.0000    0.0000   -0.0000   -0.0000    0.0000
    36 CR1    3d2+       0.0000    0.0000   -0.0000   -0.0000    0.0000   -0.0000    0.0000    0.0000    0.0000    0.0000
    37 CR1    3d2+       0.0000    0.0000    0.0000    0.0000    0.0000    0.0000    0.0000   -0.0000   -0.0000    0.0000
    38 CR1    3d2+       0.0000    0.0000   -0.0000    0.0000    0.0000   -0.0000    0.0000    0.0000    0.0000    0.0000
    39 CR1    4f3-      -0.0000   -0.0000   -0.0000    0.0000   -0.0000    0.0000    0.0000   -0.0000   -0.0000    0.0000
    40 CR1    4f2-       0.0000    0.0000   -0.0000   -0.0000    0.0000    0.0000   -0.0000    0.0000   -0.0000    0.0000
    41 CR1    4f1-      -0.0000   -0.0000   -0.0000    0.0000    0.0001    0.0000    0.0000   -0.0000    0.0000   -0.0000
    42 CR1    4f0        0.0000    0.0000   -0.0002    0.0000   -0.0000   -0.0000   -0.0000    0.0001   -0.0005    0.0004
    43 CR1    4f1+       0.0000    0.0000   -0.0000    0.0001   -0.0000    0.0000   -0.0000   -0.0000   -0.0000   -0.0000
    44 CR1    4f2+       0.0000   -0.0000   -0.0000    0.0000   -0.0000   -0.0000   -0.0000    0.0000   -0.0000   -0.0000
    45 CR1    4f3+       0.0000    0.0000   -0.0000    0.0000   -0.0000    0.0000    0.0000    0.0000   -0.0000   -0.0000
    46 CR2    1s         0.0792   -0.0792   -0.0001   -0.0000   -0.0000    0.0000   -0.0000    0.0003    0.0170   -0.0025
    47 CR2    1s        -0.3137    0.3137    0.0002    0.0000   -0.0000   -0.0000    0.0000   -0.0011   -0.0591    0.0084
    48 CR2    1s         0.4489   -0.4491   -0.0014   -0.0000   -0.0000    0.0000   -0.0000    0.0024    0.1304   -0.0204
    49 CR2    1s         0.3311   -0.3305    0.0015   -0.0000    0.0000    0.0000   -0.0000    0.0015    0.1783   -0.0277
    50 CR2    1s         0.0103   -0.0120   -0.0018    0.0000    0.0000    0.0000    0.0000   -0.0040   -0.3448    0.0669
    51 CR2    1s        -0.0033    0.0038    0.0001   -0.0000    0.0000   -0.0000    0.0000   -0.0011   -0.3080    0.0772
    52 CR2    2px       -0.0000    0.0000   -0.0000   -0.2119    0.1437    0.1776   -0.1844   -0.0000   -0.0000    0.0000
    53 CR2    2px        0.0000   -0.0000    0.0000    0.5061   -0.3433   -0.4244    0.4406    0.0000    0.0000   -0.0000
    54 CR2    2px        0.0000   -0.0000    0.0000    0.1555   -0.1055   -0.1306    0.1356    0.0000   -0.0000    0.0000
    55 CR2    2px        0.0000   -0.0000    0.0000    0.0043   -0.0030   -0.0029    0.0030    0.0000   -0.0000    0.0000
    56 CR2    2py       -0.0000    0.0000   -0.0000   -0.1437   -0.2119    0.1844    0.1776   -0.0000    0.0000   -0.0000
    57 CR2    2py        0.0000   -0.0000    0.0000    0.3433    0.5061   -0.4406   -0.4244    0.0000   -0.0000    0.0000
    58 CR2    2py        0.0000   -0.0000    0.0000    0.1055    0.1555   -0.1356   -0.1306    0.0000   -0.0000    0.0000
    59 CR2    2py       -0.0000    0.0000    0.0000    0.0030    0.0043   -0.0030   -0.0029    0.0000    0.0000   -0.0000
    60 CR2    2pz       -0.0004    0.0005   -0.2556    0.0000   -0.0000    0.0000   -0.0000    0.2563    0.0125    0.0036
    61 CR2    2pz        0.0008   -0.0009    0.6104   -0.0000    0.0000   -0.0000    0.0000   -0.6122   -0.0340   -0.0095
    62 CR2    2pz        0.0010   -0.0014    0.1882   -0.0000    0.0000   -0.0000    0.0000   -0.1892   -0.0122   -0.0049
    63 CR2    2pz        0.0001    0.0020    0.0057   -0.0000    0.0000   -0.0000    0.0000   -0.0004    0.0328    0.0066
    64 CR2    3d2-      -0.0000    0.0000   -0.0000    0.0000   -0.0000   -0.0000    0.0000    0.0000   -0.0000    0.0000
    65 CR2    3d2-       0.0000   -0.0000    0.0000    0.0000   -0.0000   -0.0000    0.0000   -0.0000   -0.0000    0.0000
    66 CR2    3d2-       0.0000    0.0000   -0.0000    0.0000    0.0000    0.0000   -0.0000    0.0000    0.0000    0.0000
    67 CR2    3d2-      -0.0000    0.0000   -0.0000   -0.0000   -0.0000   -0.0000    0.0000    0.0000   -0.0000    0.0000
    68 CR2    3d1-       0.0000   -0.0000    0.0000    0.0003    0.0004   -0.0005   -0.0005   -0.0000   -0.0000    0.0000
    69 CR2    3d1-       0.0000   -0.0000   -0.0000    0.0004    0.0007   -0.0006   -0.0006   -0.0000   -0.0000    0.0000
    70 CR2    3d1-       0.0000   -0.0000    0.0000   -0.0001   -0.0002   -0.0002   -0.0002   -0.0000   -0.0000    0.0000
    71 CR2    3d1-      -0.0000    0.0000    0.0000   -0.0001   -0.0001   -0.0005   -0.0005    0.0000    0.0000   -0.0000
    72 CR2    3d0        0.0001   -0.0001    0.0008    0.0000   -0.0000    0.0000    0.0000   -0.0010   -0.0676   -0.4190
    73 CR2    3d0       -0.0002    0.0000    0.0002   -0.0000    0.0000   -0.0000    0.0000   -0.0007   -0.0463   -0.2801
    74 CR2    3d0        0.0004   -0.0008   -0.0007    0.0000    0.0000    0.0000   -0.0000   -0.0020   -0.0323   -0.1638
    75 CR2    3d0       -0.0005   -0.0005    0.0004    0.0000    0.0000   -0.0000    0.0000   -0.0005    0.0041   -0.0144
    76 CR2    3d1+       0.0000   -0.0000    0.0000    0.0004   -0.0003   -0.0005    0.0005    0.0000    0.0000    0.0000
    77 CR2    3d1+      -0.0000   -0.0000   -0.0000    0.0007   -0.0004   -0.0006    0.0006    0.0000    0.0000    0.0000
    78 CR2    3d1+      -0.0000   -0.0000    0.0000   -0.0002    0.0001   -0.0002    0.0002   -0.0000   -0.0000    0.0000
    79 CR2    3d1+       0.0000    0.0000   -0.0000   -0.0001    0.0001   -0.0005    0.0005    0.0000    0.0000    0.0000
    80 CR2    3d2+       0.0000   -0.0000    0.0000   -0.0000   -0.0000    0.0000    0.0000    0.0000    0.0000    0.0000
    81 CR2    3d2+       0.0000   -0.0000    0.0000   -0.0000   -0.0000    0.0000   -0.0000   -0.0000    0.0000    0.0000
    82 CR2    3d2+       0.0000   -0.0000    0.0000    0.0000   -0.0000    0.0000   -0.0000   -0.0000   -0.0000    0.0000
    83 CR2    3d2+       0.0000    0.0000   -0.0000   -0.0000    0.0000   -0.0000    0.0000    0.0000    0.0000    0.0000
    84 CR2    4f3-       0.0000   -0.0000   -0.0000    0.0000    0.0000   -0.0000    0.0000    0.0000   -0.0000   -0.0000
    85 CR2    4f2-      -0.0000   -0.0000    0.0000   -0.0000    0.0000    0.0000    0.0000   -0.0000   -0.0000    0.0000
    86 CR2    4f1-       0.0000   -0.0000    0.0000    0.0000    0.0001   -0.0000   -0.0000   -0.0000   -0.0000   -0.0000
    87 CR2    4f0       -0.0000    0.0000    0.0002    0.0000    0.0000    0.0000   -0.0000    0.0001    0.0005   -0.0004
    88 CR2    4f1+       0.0000   -0.0000    0.0000    0.0001   -0.0000   -0.0000    0.0000   -0.0000   -0.0000    0.0000
    89 CR2    4f2+      -0.0000   -0.0000   -0.0000    0.0000    0.0000   -0.0000   -0.0000   -0.0000    0.0000   -0.0000
    90 CR2    4f3+      -0.0000    0.0000    0.0000    0.0000   -0.0000    0.0000   -0.0000   -0.0000    0.0000    0.0000


      Orbital                21        22        23        24        25        26        27        28        29        30
      Energy             0.0000    0.0000    0.0000    0.0000    0.0000    0.0000    0.0000    0.0000    0.0000    0.0000
      Occ. No.           1.0682    1.0682    1.0151    1.0151    0.9849    0.9849    0.9318    0.9318    0.9284    0.3468

     1 CR1    1s        -0.0000   -0.0000    0.0000    0.0000   -0.0000   -0.0000   -0.0000   -0.0000    0.0039    0.0197
     2 CR1    1s         0.0000    0.0000   -0.0000   -0.0000    0.0000    0.0000    0.0000    0.0000   -0.0130   -0.0655
     3 CR1    1s        -0.0000   -0.0000    0.0000    0.0000   -0.0000   -0.0000   -0.0000   -0.0000    0.0306    0.1582
     4 CR1    1s        -0.0000   -0.0000    0.0000    0.0000   -0.0000   -0.0000   -0.0000   -0.0000    0.0356    0.2079
     5 CR1    1s         0.0000    0.0000   -0.0000   -0.0000    0.0000    0.0000   -0.0000   -0.0000   -0.0754   -0.6155
     6 CR1    1s         0.0000    0.0000    0.0000   -0.0000    0.0000   -0.0000    0.0000    0.0000   -0.0683   -0.4479
     7 CR1    2px        0.0006   -0.0011   -0.0000   -0.0000    0.0000    0.0000    0.0025   -0.0014   -0.0000   -0.0000
     8 CR1    2px       -0.0015    0.0026    0.0000    0.0000   -0.0000   -0.0000   -0.0070    0.0040    0.0000    0.0000
     9 CR1    2px       -0.0014    0.0026   -0.0000   -0.0000    0.0000    0.0000   -0.0006    0.0003    0.0000    0.0000
    10 CR1    2px        0.0009   -0.0016   -0.0000   -0.0000   -0.0000   -0.0000    0.0029   -0.0017   -0.0000   -0.0000
    11 CR1    2py        0.0011    0.0006    0.0000   -0.0000   -0.0000    0.0000   -0.0014   -0.0025   -0.0000   -0.0000
    12 CR1    2py       -0.0026   -0.0015   -0.0000    0.0000    0.0000   -0.0000    0.0040    0.0070    0.0000    0.0000
    13 CR1    2py       -0.0026   -0.0014    0.0000   -0.0000   -0.0000   -0.0000    0.0003    0.0006    0.0000    0.0000
    14 CR1    2py        0.0016    0.0009    0.0000   -0.0000    0.0000    0.0000   -0.0017   -0.0029   -0.0000   -0.0000
    15 CR1    2pz       -0.0000   -0.0000   -0.0000    0.0000    0.0000    0.0000    0.0000    0.0000   -0.0033    0.0109
    16 CR1    2pz        0.0000   -0.0000    0.0000   -0.0000   -0.0000   -0.0000   -0.0000   -0.0000    0.0087   -0.0281
    17 CR1    2pz        0.0000    0.0000   -0.0000   -0.0000    0.0000   -0.0000    0.0000   -0.0000    0.0017   -0.0134
    18 CR1    2pz        0.0000    0.0000   -0.0000    0.0000   -0.0000    0.0000   -0.0000   -0.0000    0.0130   -0.0234
    19 CR1    3d2-       0.0000   -0.0000   -0.1162    0.4182   -0.4225    0.1169   -0.0000    0.0000   -0.0000   -0.0000
    20 CR1    3d2-       0.0000   -0.0000   -0.0777    0.2797   -0.2822    0.0781    0.0000    0.0000   -0.0000   -0.0000
    21 CR1    3d2-       0.0000    0.0000   -0.0440    0.1583   -0.1591    0.0440   -0.0000    0.0000   -0.0000   -0.0000
    22 CR1    3d2-       0.0000   -0.0000   -0.0042    0.0151   -0.0143    0.0040   -0.0000   -0.0000    0.0000   -0.0000
    23 CR1    3d1-       0.3716    0.2091   -0.0000   -0.0000    0.0000    0.0000    0.2179    0.3872    0.0000    0.0000
    24 CR1    3d1-       0.2490    0.1401   -0.0000   -0.0000    0.0000    0.0000    0.1452    0.2580    0.0000    0.0000
    25 CR1    3d1-       0.1436    0.0808   -0.0000   -0.0000    0.0000    0.0000    0.0830    0.1475    0.0000   -0.0000
    26 CR1    3d1-       0.0140    0.0079   -0.0000   -0.0000    0.0000   -0.0000    0.0073    0.0129    0.0000    0.0000
    27 CR1    3d0       -0.0000   -0.0000    0.0000    0.0000   -0.0000   -0.0000   -0.0000   -0.0000    0.4353   -0.1075
    28 CR1    3d0       -0.0000   -0.0000    0.0000    0.0000   -0.0000   -0.0000   -0.0000   -0.0000    0.2904   -0.0689
    29 CR1    3d0       -0.0000   -0.0000    0.0000    0.0000   -0.0000   -0.0000   -0.0000   -0.0000    0.1721   -0.0378
    30 CR1    3d0       -0.0000   -0.0000    0.0000    0.0000    0.0000   -0.0000   -0.0000   -0.0000    0.0158    0.0056
    31 CR1    3d1+       0.2091   -0.3716    0.0000   -0.0000    0.0000   -0.0000   -0.3872    0.2179   -0.0000   -0.0000
    32 CR1    3d1+       0.1401   -0.2490    0.0000   -0.0000    0.0000   -0.0000   -0.2580    0.1452   -0.0000   -0.0000
    33 CR1    3d1+       0.0808   -0.1436    0.0000    0.0000    0.0000   -0.0000   -0.1475    0.0830   -0.0000   -0.0000
    34 CR1    3d1+       0.0079   -0.0140   -0.0000   -0.0000   -0.0000    0.0000   -0.0129    0.0073   -0.0000    0.0000
    35 CR1    3d2+       0.0000    0.0000    0.4182    0.1162   -0.1169   -0.4225    0.0000    0.0000   -0.0000    0.0000
    36 CR1    3d2+       0.0000    0.0000    0.2797    0.0777   -0.0781   -0.2822    0.0000    0.0000   -0.0000    0.0000
    37 CR1    3d2+      -0.0000    0.0000    0.1583    0.0440   -0.0440   -0.1591    0.0000    0.0000   -0.0000    0.0000
    38 CR1    3d2+       0.0000   -0.0000    0.0151    0.0042   -0.0040   -0.0143   -0.0000   -0.0000    0.0000   -0.0000
    39 CR1    4f3-       0.0000   -0.0000    0.0000    0.0000   -0.0000   -0.0000    0.0000   -0.0000    0.0000   -0.0000
    40 CR1    4f2-      -0.0000   -0.0000    0.0001   -0.0005    0.0007   -0.0002   -0.0000    0.0000    0.0000   -0.0000
    41 CR1    4f1-      -0.0003   -0.0002    0.0000   -0.0000   -0.0000    0.0000   -0.0005   -0.0008   -0.0000    0.0000
    42 CR1    4f0        0.0000   -0.0000    0.0000   -0.0000   -0.0000   -0.0000   -0.0000    0.0000   -0.0010    0.0003
    43 CR1    4f1+      -0.0002    0.0003    0.0000   -0.0000   -0.0000    0.0000    0.0008   -0.0005   -0.0000   -0.0000
    44 CR1    4f2+      -0.0000    0.0000   -0.0005   -0.0001    0.0002    0.0007   -0.0000    0.0000    0.0000   -0.0000
    45 CR1    4f3+      -0.0000   -0.0000    0.0000    0.0000    0.0000   -0.0000    0.0000   -0.0000   -0.0000   -0.0000
    46 CR2    1s        -0.0000   -0.0000    0.0000    0.0000    0.0000   -0.0000    0.0000    0.0000   -0.0039   -0.0197
    47 CR2    1s         0.0000    0.0000   -0.0000   -0.0000   -0.0000    0.0000   -0.0000   -0.0000    0.0130    0.0655
    48 CR2    1s        -0.0000   -0.0000   -0.0000    0.0000    0.0000   -0.0000    0.0000    0.0000   -0.0306   -0.1582
    49 CR2    1s        -0.0000   -0.0000    0.0000    0.0000    0.0000   -0.0000   -0.0000    0.0000   -0.0356   -0.2079
    50 CR2    1s         0.0000    0.0000   -0.0000   -0.0000   -0.0000    0.0000    0.0000   -0.0000    0.0754    0.6155
    51 CR2    1s         0.0000    0.0000    0.0000   -0.0000   -0.0000    0.0000   -0.0000   -0.0000    0.0683    0.4479
    52 CR2    2px        0.0006   -0.0011    0.0000    0.0000    0.0000   -0.0000   -0.0025    0.0014    0.0000    0.0000
    53 CR2    2px       -0.0015    0.0026   -0.0000   -0.0000   -0.0000    0.0000    0.0070   -0.0040   -0.0000   -0.0000
    54 CR2    2px       -0.0014    0.0026    0.0000    0.0000   -0.0000   -0.0000    0.0006   -0.0003    0.0000    0.0000
    55 CR2    2px        0.0009   -0.0016   -0.0000   -0.0000    0.0000    0.0000   -0.0029    0.0017   -0.0000   -0.0000
    56 CR2    2py        0.0011    0.0006   -0.0000   -0.0000   -0.0000   -0.0000    0.0014    0.0025    0.0000   -0.0000
    57 CR2    2py       -0.0026   -0.0015    0.0000   -0.0000    0.0000    0.0000   -0.0040   -0.0070   -0.0000    0.0000
    58 CR2    2py       -0.0026   -0.0014   -0.0000    0.0000    0.0000   -0.0000   -0.0003   -0.0006    0.0000    0.0000
    59 CR2    2py        0.0016    0.0009    0.0000    0.0000   -0.0000    0.0000    0.0017    0.0029   -0.0000   -0.0000
    60 CR2    2pz        0.0000   -0.0000    0.0000   -0.0000    0.0000    0.0000    0.0000    0.0000   -0.0033    0.0109
    61 CR2    2pz       -0.0000    0.0000   -0.0000    0.0000   -0.0000   -0.0000   -0.0000   -0.0000    0.0087   -0.0281
    62 CR2    2pz       -0.0000   -0.0000    0.0000    0.0000    0.0000    0.0000    0.0000    0.0000    0.0017   -0.0134
    63 CR2    2pz        0.0000    0.0000    0.0000   -0.0000   -0.0000    0.0000   -0.0000   -0.0000    0.0130   -0.0234
    64 CR2    3d2-      -0.0000    0.0000   -0.1162    0.4182    0.4225   -0.1169   -0.0000   -0.0000    0.0000    0.0000
    65 CR2    3d2-      -0.0000    0.0000   -0.0777    0.2797    0.2822   -0.0781   -0.0000    0.0000    0.0000    0.0000
    66 CR2    3d2-      -0.0000    0.0000   -0.0440    0.1583    0.1591   -0.0440   -0.0000    0.0000    0.0000    0.0000
    67 CR2    3d2-      -0.0000    0.0000   -0.0042    0.0151    0.0143   -0.0040    0.0000   -0.0000   -0.0000   -0.0000
    68 CR2    3d1-      -0.3716   -0.2091   -0.0000   -0.0000   -0.0000   -0.0000    0.2179    0.3872    0.0000   -0.0000
    69 CR2    3d1-      -0.2490   -0.1401   -0.0000   -0.0000   -0.0000   -0.0000    0.1452    0.2580    0.0000   -0.0000
    70 CR2    3d1-      -0.1436   -0.0808   -0.0000   -0.0000   -0.0000   -0.0000    0.0830    0.1475    0.0000   -0.0000
    71 CR2    3d1-      -0.0140   -0.0079   -0.0000   -0.0000    0.0000   -0.0000    0.0073    0.0129    0.0000    0.0000
    72 CR2    3d0       -0.0000   -0.0000    0.0000    0.0000    0.0000    0.0000    0.0000    0.0000   -0.4353    0.1075
    73 CR2    3d0       -0.0000   -0.0000    0.0000    0.0000    0.0000    0.0000    0.0000    0.0000   -0.2904    0.0689
    74 CR2    3d0       -0.0000   -0.0000    0.0000    0.0000    0.0000    0.0000    0.0000    0.0000   -0.1721    0.0378
    75 CR2    3d0        0.0000   -0.0000   -0.0000    0.0000    0.0000   -0.0000    0.0000    0.0000   -0.0158   -0.0056
    76 CR2    3d1+      -0.2091    0.3716   -0.0000   -0.0000   -0.0000   -0.0000   -0.3872    0.2179    0.0000   -0.0000
    77 CR2    3d1+      -0.1401    0.2490   -0.0000   -0.0000   -0.0000   -0.0000   -0.2580    0.1452    0.0000    0.0000
    78 CR2    3d1+      -0.0808    0.1436   -0.0000   -0.0000   -0.0000   -0.0000   -0.1475    0.0830    0.0000   -0.0000
    79 CR2    3d1+      -0.0079    0.0140   -0.0000   -0.0000   -0.0000   -0.0000   -0.0129    0.0073   -0.0000    0.0000
    80 CR2    3d2+      -0.0000    0.0000    0.4182    0.1162    0.1169    0.4225   -0.0000    0.0000    0.0000   -0.0000
    81 CR2    3d2+      -0.0000    0.0000    0.2797    0.0777    0.0781    0.2822   -0.0000    0.0000    0.0000   -0.0000
    82 CR2    3d2+      -0.0000    0.0000    0.1583    0.0440    0.0440    0.1591   -0.0000    0.0000    0.0000   -0.0000
    83 CR2    3d2+      -0.0000    0.0000    0.0151    0.0042    0.0040    0.0143    0.0000   -0.0000   -0.0000   -0.0000
    84 CR2    4f3-       0.0000    0.0000    0.0000   -0.0000   -0.0000   -0.0000   -0.0000   -0.0000    0.0000   -0.0000
    85 CR2    4f2-       0.0000    0.0000   -0.0001    0.0005    0.0007   -0.0002   -0.0000    0.0000    0.0000   -0.0000
    86 CR2    4f1-      -0.0003   -0.0002    0.0000   -0.0000   -0.0000    0.0000    0.0005    0.0008    0.0000   -0.0000
    87 CR2    4f0       -0.0000    0.0000   -0.0000   -0.0000   -0.0000   -0.0000    0.0000   -0.0000   -0.0010    0.0003
    88 CR2    4f1+      -0.0002    0.0003   -0.0000    0.0000   -0.0000   -0.0000   -0.0008    0.0005    0.0000   -0.0000
    89 CR2    4f2+      -0.0000   -0.0000    0.0005    0.0001    0.0002    0.0007    0.0000   -0.0000    0.0000    0.0000
    90 CR2    4f3+      -0.0000    0.0000   -0.0000    0.0000   -0.0000   -0.0000    0.0000   -0.0000    0.0000   -0.0000


      Orbital                31        32        33
      Energy             0.1045    0.1173    0.1173
      Occ. No.           0.0000    0.0000    0.0000

     1 CR1    1s        -0.0018    0.0000    0.0000
     2 CR1    1s         0.0128   -0.0000   -0.0000
     3 CR1    1s        -0.0020    0.0000    0.0000
     4 CR1    1s        -0.0842    0.0000   -0.0000
     5 CR1    1s         0.8157    0.0000    0.0000
     6 CR1    1s        -0.5960   -0.0000   -0.0000
     7 CR1    2px        0.0000    0.0179    0.0150
     8 CR1    2px       -0.0000   -0.0506   -0.0424
     9 CR1    2px       -0.0000   -0.0137   -0.0115
    10 CR1    2px        0.0000    0.0269    0.0225
    11 CR1    2py        0.0000   -0.0150    0.0179
    12 CR1    2py        0.0000    0.0424   -0.0506
    13 CR1    2py        0.0000    0.0115   -0.0137
    14 CR1    2py       -0.0000   -0.0225    0.0269
    15 CR1    2pz        0.0381   -0.0000    0.0000
    16 CR1    2pz       -0.1032    0.0000   -0.0000
    17 CR1    2pz       -0.0725    0.0000    0.0000
    18 CR1    2pz        0.4134   -0.0000   -0.0000
    19 CR1    3d2-      -0.0000    0.0000   -0.0000
    20 CR1    3d2-      -0.0000    0.0000   -0.0000
    21 CR1    3d2-      -0.0000    0.0000    0.0000
    22 CR1    3d2-      -0.0000    0.0000   -0.0000
    23 CR1    3d1-       0.0000   -0.0345    0.0413
    24 CR1    3d1-       0.0000   -0.0111    0.0133
    25 CR1    3d1-       0.0000   -0.0789    0.0943
    26 CR1    3d1-      -0.0000    0.5517   -0.6596
    27 CR1    3d0        0.0102   -0.0000   -0.0000
    28 CR1    3d0       -0.0010   -0.0000   -0.0000
    29 CR1    3d0        0.0590   -0.0000    0.0000
    30 CR1    3d0       -0.6845   -0.0000   -0.0000
    31 CR1    3d1+       0.0000    0.0413    0.0345
    32 CR1    3d1+       0.0000    0.0133    0.0111
    33 CR1    3d1+       0.0000    0.0943    0.0789
    34 CR1    3d1+      -0.0000   -0.6596   -0.5517
    35 CR1    3d2+       0.0000    0.0000   -0.0000
    36 CR1    3d2+       0.0000    0.0000   -0.0000
    37 CR1    3d2+       0.0000    0.0000    0.0000
    38 CR1    3d2+       0.0000   -0.0000   -0.0000
    39 CR1    4f3-       0.0000   -0.0000   -0.0000
    40 CR1    4f2-       0.0000    0.0000   -0.0000
    41 CR1    4f1-      -0.0000    0.0001   -0.0002
    42 CR1    4f0        0.0012    0.0000    0.0000
    43 CR1    4f1+       0.0000   -0.0002   -0.0001
    44 CR1    4f2+       0.0000   -0.0000    0.0000
    45 CR1    4f3+       0.0000    0.0000   -0.0000
    46 CR2    1s        -0.0018    0.0000    0.0000
    47 CR2    1s         0.0128   -0.0000   -0.0000
    48 CR2    1s        -0.0020    0.0000    0.0000
    49 CR2    1s        -0.0842    0.0000    0.0000
    50 CR2    1s         0.8157   -0.0000   -0.0000
    51 CR2    1s        -0.5960    0.0000    0.0000
    52 CR2    2px       -0.0000   -0.0179   -0.0150
    53 CR2    2px        0.0000    0.0506    0.0424
    54 CR2    2px        0.0000    0.0137    0.0115
    55 CR2    2px        0.0000   -0.0269   -0.0225
    56 CR2    2py       -0.0000    0.0150   -0.0179
    57 CR2    2py        0.0000   -0.0424    0.0506
    58 CR2    2py        0.0000   -0.0115    0.0137
    59 CR2    2py       -0.0000    0.0225   -0.0269
    60 CR2    2pz       -0.0381    0.0000    0.0000
    61 CR2    2pz        0.1032   -0.0000   -0.0000
    62 CR2    2pz        0.0725   -0.0000    0.0000
    63 CR2    2pz       -0.4134   -0.0000   -0.0000
    64 CR2    3d2-      -0.0000   -0.0000    0.0000
    65 CR2    3d2-      -0.0000   -0.0000    0.0000
    66 CR2    3d2-      -0.0000   -0.0000    0.0000
    67 CR2    3d2-      -0.0000   -0.0000   -0.0000
    68 CR2    3d1-       0.0000   -0.0345    0.0413
    69 CR2    3d1-       0.0000   -0.0111    0.0133
    70 CR2    3d1-       0.0000   -0.0789    0.0943
    71 CR2    3d1-      -0.0000    0.5517   -0.6596
    72 CR2    3d0        0.0102    0.0000   -0.0000
    73 CR2    3d0       -0.0010    0.0000   -0.0000
    74 CR2    3d0        0.0590    0.0000   -0.0000
    75 CR2    3d0       -0.6845   -0.0000    0.0000
    76 CR2    3d1+      -0.0000    0.0413    0.0345
    77 CR2    3d1+      -0.0000    0.0133    0.0111
    78 CR2    3d1+      -0.0000    0.0943    0.0789
    79 CR2    3d1+      -0.0000   -0.6596   -0.5517
    80 CR2    3d2+       0.0000    0.0000   -0.0000
    81 CR2    3d2+       0.0000    0.0000   -0.0000
    82 CR2    3d2+       0.0000    0.0000    0.0000
    83 CR2    3d2+       0.0000    0.0000   -0.0000
    84 CR2    4f3-       0.0000    0.0000   -0.0000
    85 CR2    4f2-       0.0000   -0.0000    0.0000
    86 CR2    4f1-       0.0000   -0.0001    0.0002
    87 CR2    4f0       -0.0012    0.0000   -0.0000
    88 CR2    4f1+       0.0000    0.0002    0.0001
    89 CR2    4f2+      -0.0000   -0.0000   -0.0000
    90 CR2    4f3+      -0.0000   -0.0000   -0.0000
--

      Von Neumann Entropy (Root  1) =  5.65479


      Mulliken population analysis for root number:  1
      -----------------------------------------------


++    Molecular charges:
      ------------------

      Mulliken charges per centre and basis function type
      ---------------------------------------------------

                CR1     CR2   
      1s       6.9906  6.9906
      2px      4.0002  4.0002
      2pz      4.0085  4.0085
      2py      4.0002  4.0002
      3d2+     1.0000  1.0000
      3d1+     0.9998  0.9998
      3d0      1.0008  1.0008
      3d1-     0.9998  0.9998
      3d2-     1.0000  1.0000
      4f3+     0.0000  0.0000
      4f2+     0.0000  0.0000
      4f1+     0.0000  0.0000
      4f0      0.0000  0.0000
      4f1-     0.0000  0.0000
      4f2-     0.0000  0.0000
      4f3-     0.0000  0.0000
      Total   24.0000 24.0000

      N-E      0.0000 -0.0000

      Total electronic charge=   48.000000

      Total            charge=   -0.000000
--



      Expectation values of various properties for root number:  1
      -----------------------------------------------------------


++    Molecular properties:
      ---------------------

      Charge (e):
                      =   -0.0000
      Dipole Moment (Debye):
      Origin of the operator (Ang)=    0.0000    0.0000    0.0000
                   X= -1.1775E-07               Y= -1.3333E-07               Z= -1.9535E-07           Total=  2.6420E-07
      Quadrupole Moment (Debye*Ang):
      Origin of the operator (Ang)=    0.0000    0.0000    1.5000
                  XX= -3.3648E+01              XY= -2.6452E-07              XZ=  5.1712E-07              YY= -3.3648E+01
                  YZ=  3.2025E-07              ZZ= -2.8244E+01
      In traceless form (Debye*Ang)
                  XX= -2.7021E+00              XY= -3.9678E-07              XZ=  7.7568E-07              YY= -2.7021E+00
                  YZ=  4.8038E-07              ZZ=  5.4043E+00
--


  Input file to MOLDEN was generated!

      Average orbitals are written to the RASORB file
      Natural orbitals for root   1 are written to the RASORB.1 file
      Spin density orbitals for root   1 are written to the SPDORB.1 file

--- Stop Module: rasscf at Mon Jul  5 15:46:10 2021 /rc=_RC_ALL_IS_WELL_ ---
*** files: Cr2_30_uhf_SUHFNO_CASSCF.rasscf.molden Cr2_30_uhf_SUHFNO_CASSCF.RasOrb Cr2_30_uhf_SUHFNO_CASSCF.RasOrb.1 Cr2_30_uhf_SUHFNO_CASSCF.rasscf.h5
           Cr2_30_uhf_SUHFNO_CASSCF.SpdOrb.1 xmldump
    saved to directory /share/home/srwang/automr_inputlibrary/suhf_vs_gvb/Cr2_30_om
--- Module rasscf spent 7 minutes 0 seconds ---

.##################.
.# Happy landing! #.
.##################.

    Timing: Wall=423.95 User=6314.85 System=185.51
