[Molden Format]
[N_ATOMS]
                    2
[ATOMS] (AU)
CR1         1     24           0.00000000      0.00000000      0.00000000
CR2         2     24           0.00000000      0.00000000      5.66917839
[5D]
[7F]
[CHARGE] (MULLIKEN)
   0.0000000000000000     
   0.0000000000000000     
[GTO] (AU)
   1
   s   8
  0.254477807E+06  0.242904776E-03
  0.381317971E+05  0.188435236E-02
  0.867529306E+04  0.980095844E-02
  0.245500998E+04  0.398250087E-01
  0.799162178E+03  0.129405437E+00
  0.286900215E+03  0.306290018E+00
  0.111254132E+03  0.434628350E+00
  0.438641526E+02  0.224695629E+00
   s   4
  0.279326692E+03 -0.243633579E-01
  0.862747324E+02 -0.115114954E+00
  0.135557561E+02  0.550922663E+00
  0.569781128E+01  0.536113547E+00
   s   2
  0.856365826E+01 -0.371230176E+00
  0.139882968E+01  0.116811695E+01
   s   1
  0.572881711E+00  0.100000000E+01
   s   1
  0.900961713E-01  0.100000000E+01
   s   1
  0.341258851E-01  0.100000000E+01
   p   6
  0.130643989E+04  0.282928007E-02
  0.309253114E+03  0.227766292E-01
  0.989962740E+02  0.105645619E+00
  0.367569165E+02  0.299499449E+00
  0.145666571E+02  0.477062454E+00
  0.587399374E+01  0.276542344E+00
   p   3
  0.228909997E+02 -0.194121061E-01
  0.308550018E+01  0.386188758E+00
  0.121323291E+01  0.676239089E+00
   p   1
  0.449316807E+00  0.100000000E+01
   p   1
  0.120675000E+00  0.100000000E+01
   d   4
  0.437200745E+02  0.220932593E-01
  0.123912427E+02  0.128014388E+00
  0.426394420E+01  0.386529103E+00
  0.155252218E+01  0.641033014E+00
   d   1
  0.537619295E+00  0.100000000E+01
   d   1
  0.164931731E+00  0.100000000E+01
   d   1
  0.510000000E-01  0.100000000E+01
   f   1
  0.114700000E+01  0.100000000E+01
 
   2
   s   8
  0.254477807E+06  0.242904776E-03
  0.381317971E+05  0.188435236E-02
  0.867529306E+04  0.980095844E-02
  0.245500998E+04  0.398250087E-01
  0.799162178E+03  0.129405437E+00
  0.286900215E+03  0.306290018E+00
  0.111254132E+03  0.434628350E+00
  0.438641526E+02  0.224695629E+00
   s   4
  0.279326692E+03 -0.243633579E-01
  0.862747324E+02 -0.115114954E+00
  0.135557561E+02  0.550922663E+00
  0.569781128E+01  0.536113547E+00
   s   2
  0.856365826E+01 -0.371230176E+00
  0.139882968E+01  0.116811695E+01
   s   1
  0.572881711E+00  0.100000000E+01
   s   1
  0.900961713E-01  0.100000000E+01
   s   1
  0.341258851E-01  0.100000000E+01
   p   6
  0.130643989E+04  0.282928007E-02
  0.309253114E+03  0.227766292E-01
  0.989962740E+02  0.105645619E+00
  0.367569165E+02  0.299499449E+00
  0.145666571E+02  0.477062454E+00
  0.587399374E+01  0.276542344E+00
   p   3
  0.228909997E+02 -0.194121061E-01
  0.308550018E+01  0.386188758E+00
  0.121323291E+01  0.676239089E+00
   p   1
  0.449316807E+00  0.100000000E+01
   p   1
  0.120675000E+00  0.100000000E+01
   d   4
  0.437200745E+02  0.220932593E-01
  0.123912427E+02  0.128014388E+00
  0.426394420E+01  0.386529103E+00
  0.155252218E+01  0.641033014E+00
   d   1
  0.537619295E+00  0.100000000E+01
   d   1
  0.164931731E+00  0.100000000E+01
   d   1
  0.510000000E-01  0.100000000E+01
   f   1
  0.114700000E+01  0.100000000E+01
 
[MO]
Sym=     1a  
Ene=  -222.1800
Spin= Alpha
Occup=    2.00000
   1        -0.70688713
   2        -0.00104293
   3        -0.00161032
   4         0.00134746
   5        -0.00044405
   6         0.00021328
   7         0.00000000
   8        -0.00000000
   9         0.00000004
  10         0.00000000
  11         0.00000000
  12         0.00000012
  13        -0.00000000
  14         0.00000000
  15         0.00000004
  16         0.00000000
  17        -0.00000000
  18         0.00000000
  19         0.00000055
  20        -0.00000000
  21         0.00000000
  22         0.00000000
  23        -0.00000000
  24         0.00000036
  25        -0.00000000
  26        -0.00000000
  27         0.00000000
  28        -0.00000000
  29         0.00000020
  30         0.00000000
  31         0.00000000
  32         0.00000000
  33         0.00000000
  34         0.00000002
  35        -0.00000000
  36        -0.00000000
  37        -0.00000000
  38         0.00000000
  39         0.00000000
  40        -0.00000000
  41        -0.00000000
  42         0.00000000
  43         0.00000000
  44        -0.00000000
  45         0.00000000
  46         0.70688712
  47         0.00104293
  48         0.00161032
  49        -0.00134746
  50         0.00044405
  51        -0.00021328
  52        -0.00000000
  53        -0.00000000
  54         0.00000004
  55        -0.00000000
  56         0.00000000
  57         0.00000012
  58         0.00000000
  59        -0.00000000
  60         0.00000004
  61         0.00000000
  62         0.00000000
  63         0.00000000
  64        -0.00000055
  65        -0.00000000
  66        -0.00000000
  67         0.00000000
  68        -0.00000000
  69        -0.00000036
  70        -0.00000000
  71        -0.00000000
  72        -0.00000000
  73        -0.00000000
  74        -0.00000020
  75         0.00000000
  76         0.00000000
  77         0.00000000
  78         0.00000000
  79        -0.00000002
  80        -0.00000000
  81        -0.00000000
  82        -0.00000000
  83         0.00000000
  84        -0.00000000
  85        -0.00000000
  86         0.00000000
  87         0.00000000
  88        -0.00000000
  89        -0.00000000
  90        -0.00000000
Sym=     2a  
Ene=  -222.1800
Spin= Alpha
Occup=    2.00000
   1         0.70688739
   2         0.00104297
   3         0.00160975
   4        -0.00134807
   5         0.00044580
   6        -0.00021217
   7        -0.00000000
   8         0.00000000
   9         0.00000004
  10         0.00000000
  11        -0.00000000
  12         0.00000013
  13         0.00000000
  14         0.00000000
  15         0.00000004
  16         0.00000000
  17        -0.00000000
  18         0.00000000
  19         0.00000055
  20        -0.00000000
  21        -0.00000000
  22         0.00000000
  23        -0.00000000
  24         0.00000036
  25         0.00000000
  26         0.00000000
  27        -0.00000000
  28        -0.00000000
  29         0.00000020
  30        -0.00000000
  31        -0.00000000
  32         0.00000000
  33        -0.00000000
  34         0.00000002
  35         0.00000000
  36        -0.00000000
  37        -0.00000000
  38         0.00000000
  39         0.00000000
  40         0.00000000
  41         0.00000000
  42         0.00000000
  43         0.00000000
  44         0.00000000
  45        -0.00000000
  46         0.70688740
  47         0.00104297
  48         0.00160975
  49        -0.00134807
  50         0.00044580
  51        -0.00021217
  52        -0.00000000
  53        -0.00000000
  54        -0.00000004
  55         0.00000000
  56         0.00000000
  57        -0.00000013
  58         0.00000000
  59        -0.00000000
  60        -0.00000004
  61        -0.00000000
  62         0.00000000
  63        -0.00000000
  64         0.00000055
  65        -0.00000000
  66         0.00000000
  67         0.00000000
  68        -0.00000000
  69         0.00000036
  70         0.00000000
  71        -0.00000000
  72        -0.00000000
  73        -0.00000000
  74         0.00000020
  75        -0.00000000
  76        -0.00000000
  77         0.00000000
  78         0.00000000
  79         0.00000002
  80         0.00000000
  81        -0.00000000
  82        -0.00000000
  83        -0.00000000
  84        -0.00000000
  85        -0.00000000
  86         0.00000000
  87        -0.00000000
  88         0.00000000
  89         0.00000000
  90         0.00000000
Sym=     3a  
Ene=   -26.7800
Spin= Alpha
Occup=    2.00000
   1        -0.21832243
   2         0.73506362
   3         0.01216107
   4         0.00114129
   5        -0.00062758
   6         0.00042731
   7        -0.00000000
   8        -0.00000000
   9         0.00001722
  10         0.00000000
  11         0.00000000
  12         0.00000388
  13        -0.00000000
  14        -0.00000000
  15         0.00000098
  16         0.00000000
  17        -0.00000000
  18         0.00000003
  19         0.00003372
  20         0.00000000
  21         0.00000000
  22        -0.00000000
  23         0.00000000
  24         0.00002221
  25        -0.00000000
  26         0.00000000
  27         0.00000000
  28         0.00000000
  29         0.00001209
  30         0.00000000
  31        -0.00000000
  32        -0.00000000
  33        -0.00000000
  34         0.00000120
  35        -0.00000000
  36        -0.00000000
  37         0.00000000
  38         0.00000000
  39        -0.00000000
  40         0.00000000
  41         0.00000000
  42        -0.00000000
  43        -0.00000000
  44        -0.00000000
  45         0.00000000
  46        -0.21832243
  47         0.73506362
  48         0.01216107
  49         0.00114129
  50        -0.00062758
  51         0.00042731
  52        -0.00000000
  53        -0.00000000
  54        -0.00001722
  55        -0.00000000
  56         0.00000000
  57        -0.00000388
  58         0.00000000
  59        -0.00000000
  60        -0.00000098
  61        -0.00000000
  62         0.00000000
  63        -0.00000003
  64         0.00003372
  65         0.00000000
  66        -0.00000000
  67        -0.00000000
  68        -0.00000000
  69         0.00002221
  70        -0.00000000
  71        -0.00000000
  72        -0.00000000
  73         0.00000000
  74         0.00001209
  75         0.00000000
  76         0.00000000
  77        -0.00000000
  78        -0.00000000
  79         0.00000120
  80        -0.00000000
  81        -0.00000000
  82         0.00000000
  83         0.00000000
  84         0.00000000
  85        -0.00000000
  86         0.00000000
  87        -0.00000000
  88        -0.00000000
  89        -0.00000000
  90         0.00000000
Sym=     4a  
Ene=   -26.7800
Spin= Alpha
Occup=    2.00000
   1         0.21832245
   2        -0.73506038
   3        -0.01218995
   4        -0.00117510
   5         0.00073712
   6        -0.00035793
   7         0.00000000
   8         0.00000000
   9         0.00001546
  10        -0.00000000
  11        -0.00000000
  12         0.00000317
  13        -0.00000000
  14         0.00000000
  15         0.00000079
  16         0.00000000
  17         0.00000000
  18         0.00000003
  19         0.00003353
  20        -0.00000000
  21         0.00000000
  22         0.00000000
  23        -0.00000000
  24         0.00002209
  25         0.00000000
  26        -0.00000000
  27         0.00000000
  28        -0.00000000
  29         0.00001202
  30        -0.00000000
  31         0.00000000
  32        -0.00000000
  33         0.00000000
  34         0.00000119
  35         0.00000000
  36         0.00000000
  37        -0.00000000
  38         0.00000000
  39         0.00000000
  40        -0.00000000
  41         0.00000000
  42        -0.00000000
  43        -0.00000000
  44         0.00000000
  45         0.00000000
  46        -0.21832245
  47         0.73506038
  48         0.01218995
  49         0.00117510
  50        -0.00073712
  51         0.00035793
  52        -0.00000000
  53         0.00000000
  54         0.00001546
  55        -0.00000000
  56         0.00000000
  57         0.00000317
  58         0.00000000
  59         0.00000000
  60         0.00000079
  61        -0.00000000
  62         0.00000000
  63         0.00000003
  64        -0.00003353
  65        -0.00000000
  66        -0.00000000
  67        -0.00000000
  68        -0.00000000
  69        -0.00002209
  70         0.00000000
  71         0.00000000
  72         0.00000000
  73        -0.00000000
  74        -0.00001202
  75        -0.00000000
  76         0.00000000
  77        -0.00000000
  78        -0.00000000
  79        -0.00000119
  80         0.00000000
  81        -0.00000000
  82         0.00000000
  83         0.00000000
  84        -0.00000000
  85        -0.00000000
  86        -0.00000000
  87        -0.00000000
  88        -0.00000000
  89         0.00000000
  90         0.00000000
Sym=     5a  
Ene=   -22.4130
Spin= Alpha
Occup=    2.00000
   1        -0.00000639
   2         0.00002528
   3        -0.00000069
   4         0.00000071
   5        -0.00001040
   6        -0.00000648
   7        -0.00000000
   8        -0.00000000
   9        -0.70246452
  10        -0.00000000
  11        -0.00000000
  12        -0.01267300
  13         0.00000000
  14         0.00000000
  15         0.00161419
  16        -0.00000000
  17        -0.00000000
  18        -0.00034071
  19        -0.00001094
  20        -0.00000000
  21        -0.00000000
  22        -0.00000000
  23        -0.00000000
  24        -0.00000720
  25        -0.00000000
  26        -0.00000000
  27         0.00000000
  28        -0.00000000
  29        -0.00000392
  30         0.00000000
  31         0.00000000
  32        -0.00000000
  33        -0.00000000
  34        -0.00000039
  35        -0.00000000
  36        -0.00000000
  37         0.00000000
  38         0.00000000
  39        -0.00000000
  40         0.00000000
  41        -0.00000000
  42        -0.00000000
  43        -0.00000000
  44         0.00000000
  45        -0.00000000
  46        -0.00000639
  47         0.00002528
  48        -0.00000069
  49         0.00000071
  50        -0.00001040
  51        -0.00000648
  52        -0.00000000
  53        -0.00000000
  54         0.70246452
  55        -0.00000000
  56        -0.00000000
  57         0.01267300
  58         0.00000000
  59         0.00000000
  60        -0.00161419
  61        -0.00000000
  62        -0.00000000
  63         0.00034071
  64        -0.00001094
  65         0.00000000
  66         0.00000000
  67         0.00000000
  68        -0.00000000
  69        -0.00000720
  70        -0.00000000
  71        -0.00000000
  72         0.00000000
  73         0.00000000
  74        -0.00000392
  75        -0.00000000
  76         0.00000000
  77         0.00000000
  78        -0.00000000
  79        -0.00000039
  80        -0.00000000
  81        -0.00000000
  82         0.00000000
  83         0.00000000
  84        -0.00000000
  85        -0.00000000
  86        -0.00000000
  87         0.00000000
  88         0.00000000
  89         0.00000000
  90        -0.00000000
Sym=     6a  
Ene=   -22.4130
Spin= Alpha
Occup=    2.00000
   1         0.00000000
   2        -0.00000000
   3         0.00000000
   4        -0.00000000
   5         0.00000000
   6         0.00000000
   7         0.69265154
   8        -0.11701816
   9         0.00000000
  10         0.01249318
  11        -0.00211063
  12         0.00000000
  13        -0.00159244
  14         0.00026903
  15        -0.00000000
  16         0.00033593
  17        -0.00005675
  18         0.00000000
  19         0.00000000
  20         0.00000324
  21        -0.00000055
  22         0.00000000
  23        -0.00000000
  24        -0.00000000
  25         0.00000214
  26        -0.00000036
  27         0.00000000
  28         0.00000000
  29         0.00000000
  30         0.00000116
  31        -0.00000020
  32        -0.00000000
  33        -0.00000000
  34        -0.00000000
  35         0.00000012
  36        -0.00000002
  37         0.00000000
  38         0.00000000
  39         0.00000000
  40        -0.00000000
  41        -0.00000000
  42        -0.00000000
  43         0.00000000
  44         0.00000000
  45         0.00000000
  46        -0.00000000
  47         0.00000000
  48         0.00000000
  49        -0.00000000
  50         0.00000000
  51        -0.00000000
  52         0.69265154
  53        -0.11701816
  54        -0.00000000
  55         0.01249318
  56        -0.00211063
  57        -0.00000000
  58        -0.00159244
  59         0.00026903
  60         0.00000000
  61         0.00033593
  62        -0.00005675
  63        -0.00000000
  64         0.00000000
  65        -0.00000324
  66         0.00000055
  67         0.00000000
  68        -0.00000000
  69         0.00000000
  70        -0.00000214
  71         0.00000036
  72         0.00000000
  73        -0.00000000
  74        -0.00000000
  75        -0.00000116
  76         0.00000020
  77         0.00000000
  78         0.00000000
  79        -0.00000000
  80        -0.00000012
  81         0.00000002
  82        -0.00000000
  83         0.00000000
  84         0.00000000
  85         0.00000000
  86         0.00000000
  87         0.00000000
  88        -0.00000000
  89        -0.00000000
  90        -0.00000000
Sym=     7a  
Ene=   -22.4130
Spin= Alpha
Occup=    2.00000
   1        -0.00000000
   2         0.00000000
   3        -0.00000000
   4         0.00000000
   5        -0.00000000
   6        -0.00000000
   7         0.11701816
   8         0.69265154
   9        -0.00000000
  10         0.00211063
  11         0.01249318
  12        -0.00000000
  13        -0.00026903
  14        -0.00159244
  15         0.00000000
  16         0.00005675
  17         0.00033593
  18        -0.00000000
  19        -0.00000000
  20         0.00000055
  21         0.00000324
  22        -0.00000000
  23         0.00000000
  24        -0.00000000
  25         0.00000036
  26         0.00000214
  27        -0.00000000
  28        -0.00000000
  29        -0.00000000
  30         0.00000020
  31         0.00000116
  32        -0.00000000
  33         0.00000000
  34         0.00000000
  35         0.00000002
  36         0.00000012
  37        -0.00000000
  38        -0.00000000
  39        -0.00000000
  40        -0.00000000
  41         0.00000000
  42         0.00000000
  43        -0.00000000
  44        -0.00000000
  45        -0.00000000
  46        -0.00000000
  47         0.00000000
  48        -0.00000000
  49         0.00000000
  50        -0.00000000
  51        -0.00000000
  52         0.11701816
  53         0.69265154
  54         0.00000000
  55         0.00211063
  56         0.01249318
  57         0.00000000
  58        -0.00026903
  59        -0.00159244
  60        -0.00000000
  61         0.00005675
  62         0.00033593
  63         0.00000000
  64        -0.00000000
  65        -0.00000055
  66        -0.00000324
  67        -0.00000000
  68        -0.00000000
  69        -0.00000000
  70        -0.00000036
  71        -0.00000214
  72        -0.00000000
  73         0.00000000
  74        -0.00000000
  75        -0.00000020
  76        -0.00000116
  77         0.00000000
  78        -0.00000000
  79        -0.00000000
  80        -0.00000002
  81        -0.00000012
  82         0.00000000
  83         0.00000000
  84        -0.00000000
  85         0.00000000
  86        -0.00000000
  87        -0.00000000
  88         0.00000000
  89         0.00000000
  90        -0.00000000
Sym=     8a  
Ene=   -22.4130
Spin= Alpha
Occup=    2.00000
   1        -0.00000000
   2        -0.00000000
   3        -0.00000000
   4         0.00000000
   5        -0.00000000
   6        -0.00000000
   7        -0.68316567
   8         0.16353978
   9         0.00000000
  10        -0.01232090
  11         0.00294944
  12         0.00000000
  13         0.00157096
  14        -0.00037607
  15        -0.00000000
  16        -0.00033133
  17         0.00007931
  18         0.00000000
  19        -0.00000000
  20         0.00000319
  21        -0.00000076
  22        -0.00000000
  23         0.00000000
  24         0.00000000
  25         0.00000210
  26        -0.00000050
  27        -0.00000000
  28         0.00000000
  29        -0.00000000
  30         0.00000115
  31        -0.00000027
  32         0.00000000
  33         0.00000000
  34        -0.00000000
  35         0.00000011
  36        -0.00000003
  37        -0.00000000
  38         0.00000000
  39        -0.00000000
  40         0.00000000
  41        -0.00000000
  42         0.00000000
  43         0.00000000
  44        -0.00000000
  45        -0.00000000
  46         0.00000000
  47         0.00000000
  48         0.00000000
  49        -0.00000000
  50         0.00000000
  51        -0.00000000
  52         0.68316566
  53        -0.16353978
  54        -0.00000000
  55         0.01232090
  56        -0.00294944
  57        -0.00000000
  58        -0.00157096
  59         0.00037607
  60         0.00000000
  61         0.00033133
  62        -0.00007931
  63        -0.00000000
  64         0.00000000
  65         0.00000319
  66        -0.00000076
  67        -0.00000000
  68        -0.00000000
  69        -0.00000000
  70         0.00000210
  71        -0.00000050
  72         0.00000000
  73        -0.00000000
  74         0.00000000
  75         0.00000115
  76        -0.00000027
  77        -0.00000000
  78        -0.00000000
  79        -0.00000000
  80         0.00000011
  81        -0.00000003
  82         0.00000000
  83        -0.00000000
  84        -0.00000000
  85        -0.00000000
  86         0.00000000
  87        -0.00000000
  88         0.00000000
  89         0.00000000
  90         0.00000000
Sym=     9a  
Ene=   -22.4130
Spin= Alpha
Occup=    2.00000
   1        -0.00000000
   2         0.00000000
   3        -0.00000000
   4         0.00000000
   5         0.00000000
   6        -0.00000000
   7        -0.16353978
   8        -0.68316567
   9        -0.00000000
  10        -0.00294944
  11        -0.01232090
  12        -0.00000000
  13         0.00037607
  14         0.00157096
  15         0.00000000
  16        -0.00007931
  17        -0.00033133
  18        -0.00000000
  19        -0.00000000
  20         0.00000076
  21         0.00000319
  22         0.00000000
  23         0.00000000
  24         0.00000000
  25         0.00000050
  26         0.00000210
  27         0.00000000
  28        -0.00000000
  29        -0.00000000
  30         0.00000027
  31         0.00000115
  32        -0.00000000
  33         0.00000000
  34        -0.00000000
  35         0.00000003
  36         0.00000011
  37        -0.00000000
  38        -0.00000000
  39        -0.00000000
  40        -0.00000000
  41        -0.00000000
  42         0.00000000
  43        -0.00000000
  44        -0.00000000
  45        -0.00000000
  46        -0.00000000
  47         0.00000000
  48        -0.00000000
  49         0.00000000
  50        -0.00000000
  51        -0.00000000
  52         0.16353978
  53         0.68316566
  54         0.00000000
  55         0.00294944
  56         0.01232090
  57         0.00000000
  58        -0.00037607
  59        -0.00157096
  60        -0.00000000
  61         0.00007931
  62         0.00033133
  63         0.00000000
  64        -0.00000000
  65         0.00000076
  66         0.00000319
  67        -0.00000000
  68        -0.00000000
  69        -0.00000000
  70         0.00000050
  71         0.00000210
  72         0.00000000
  73         0.00000000
  74         0.00000000
  75         0.00000027
  76         0.00000115
  77        -0.00000000
  78        -0.00000000
  79        -0.00000000
  80         0.00000003
  81         0.00000011
  82         0.00000000
  83         0.00000000
  84         0.00000000
  85         0.00000000
  86         0.00000000
  87        -0.00000000
  88         0.00000000
  89         0.00000000
  90        -0.00000000
Sym=    10a  
Ene=   -22.4130
Spin= Alpha
Occup=    2.00000
   1        -0.00000551
   2         0.00002203
   3        -0.00000045
   4         0.00000088
   5        -0.00001027
   6        -0.00000641
   7         0.00000000
   8        -0.00000000
   9         0.70246948
  10         0.00000000
  11        -0.00000000
  12         0.01266639
  13        -0.00000000
  14         0.00000000
  15        -0.00161611
  16         0.00000000
  17        -0.00000000
  18         0.00034067
  19        -0.00001088
  20         0.00000000
  21         0.00000000
  22         0.00000000
  23        -0.00000000
  24        -0.00000717
  25        -0.00000000
  26        -0.00000000
  27         0.00000000
  28        -0.00000000
  29        -0.00000390
  30        -0.00000000
  31         0.00000000
  32         0.00000000
  33         0.00000000
  34        -0.00000039
  35         0.00000000
  36        -0.00000000
  37        -0.00000000
  38         0.00000000
  39         0.00000000
  40         0.00000000
  41        -0.00000000
  42        -0.00000000
  43         0.00000000
  44        -0.00000000
  45        -0.00000000
  46         0.00000551
  47        -0.00002203
  48         0.00000045
  49        -0.00000088
  50         0.00001027
  51         0.00000641
  52         0.00000000
  53        -0.00000000
  54         0.70246948
  55         0.00000000
  56        -0.00000000
  57         0.01266639
  58        -0.00000000
  59         0.00000000
  60        -0.00161611
  61         0.00000000
  62        -0.00000000
  63         0.00034067
  64         0.00001088
  65        -0.00000000
  66        -0.00000000
  67        -0.00000000
  68        -0.00000000
  69         0.00000717
  70        -0.00000000
  71         0.00000000
  72        -0.00000000
  73         0.00000000
  74         0.00000390
  75        -0.00000000
  76        -0.00000000
  77        -0.00000000
  78        -0.00000000
  79         0.00000039
  80        -0.00000000
  81         0.00000000
  82        -0.00000000
  83         0.00000000
  84        -0.00000000
  85         0.00000000
  86        -0.00000000
  87        -0.00000000
  88        -0.00000000
  89         0.00000000
  90         0.00000000
Sym=    11a  
Ene=    -3.5556
Spin= Alpha
Occup=    2.00000
   1         0.07785094
   2        -0.30833853
   3         0.46807857
   4         0.30860098
   5         0.01369077
   6        -0.00105233
   7         0.00000000
   8        -0.00000000
   9        -0.00060501
  10        -0.00000000
  11         0.00000000
  12         0.00133526
  13        -0.00000000
  14         0.00000000
  15         0.00038657
  16         0.00000000
  17        -0.00000000
  18         0.00000917
  19         0.00177232
  20        -0.00000000
  21        -0.00000000
  22         0.00000000
  23        -0.00000000
  24         0.00116736
  25         0.00000000
  26        -0.00000000
  27        -0.00000000
  28        -0.00000000
  29         0.00063558
  30        -0.00000000
  31         0.00000000
  32         0.00000000
  33         0.00000000
  34         0.00006300
  35         0.00000000
  36        -0.00000000
  37        -0.00000000
  38        -0.00000000
  39         0.00000000
  40         0.00000000
  41        -0.00000000
  42         0.00000000
  43         0.00000000
  44         0.00000000
  45        -0.00000000
  46         0.07785094
  47        -0.30833853
  48         0.46807857
  49         0.30860098
  50         0.01369077
  51        -0.00105233
  52         0.00000000
  53        -0.00000000
  54         0.00060501
  55        -0.00000000
  56         0.00000000
  57        -0.00133526
  58         0.00000000
  59        -0.00000000
  60        -0.00038657
  61        -0.00000000
  62         0.00000000
  63        -0.00000917
  64         0.00177232
  65        -0.00000000
  66        -0.00000000
  67         0.00000000
  68        -0.00000000
  69         0.00116736
  70        -0.00000000
  71         0.00000000
  72        -0.00000000
  73        -0.00000000
  74         0.00063558
  75         0.00000000
  76        -0.00000000
  77         0.00000000
  78         0.00000000
  79         0.00006300
  80        -0.00000000
  81         0.00000000
  82        -0.00000000
  83         0.00000000
  84        -0.00000000
  85        -0.00000000
  86         0.00000000
  87         0.00000000
  88         0.00000000
  89        -0.00000000
  90        -0.00000000
Sym=    12a  
Ene=    -3.5519
Spin= Alpha
Occup=    2.00000
   1        -0.07804611
   2         0.30898832
   3        -0.46984986
   4        -0.31039283
   5        -0.00908661
   6         0.00398014
   7        -0.00000000
   8        -0.00000000
   9        -0.00034707
  10         0.00000000
  11         0.00000000
  12         0.00076416
  13        -0.00000000
  14         0.00000000
  15         0.00022124
  16         0.00000000
  17         0.00000000
  18         0.00000525
  19         0.00169542
  20         0.00000000
  21         0.00000000
  22         0.00000000
  23         0.00000000
  24         0.00111670
  25        -0.00000000
  26         0.00000000
  27        -0.00000000
  28        -0.00000000
  29         0.00060800
  30         0.00000000
  31        -0.00000000
  32         0.00000000
  33         0.00000000
  34         0.00006027
  35        -0.00000000
  36         0.00000000
  37         0.00000000
  38        -0.00000000
  39        -0.00000000
  40        -0.00000000
  41        -0.00000000
  42        -0.00000000
  43         0.00000000
  44         0.00000000
  45        -0.00000000
  46         0.07804611
  47        -0.30898832
  48         0.46984986
  49         0.31039283
  50         0.00908661
  51        -0.00398014
  52        -0.00000000
  53         0.00000000
  54        -0.00034707
  55         0.00000000
  56        -0.00000000
  57         0.00076416
  58        -0.00000000
  59         0.00000000
  60         0.00022124
  61         0.00000000
  62        -0.00000000
  63         0.00000525
  64        -0.00169542
  65         0.00000000
  66        -0.00000000
  67        -0.00000000
  68        -0.00000000
  69        -0.00111670
  70        -0.00000000
  71        -0.00000000
  72        -0.00000000
  73        -0.00000000
  74        -0.00060800
  75         0.00000000
  76        -0.00000000
  77         0.00000000
  78        -0.00000000
  79        -0.00006027
  80        -0.00000000
  81         0.00000000
  82        -0.00000000
  83         0.00000000
  84         0.00000000
  85        -0.00000000
  86         0.00000000
  87        -0.00000000
  88         0.00000000
  89        -0.00000000
  90        -0.00000000
Sym=    13a  
Ene=    -2.2574
Spin= Alpha
Occup=    2.00000
   1         0.00038963
   2        -0.00140314
   3         0.00265611
   4         0.00208634
   5        -0.00242838
   6        -0.00157963
   7        -0.00000000