HF file generated by AutoMR of MOKIT                                    
Stability UHF                                                         Gen                 
Number of atoms                            I                2
Info1-9                                    I   N=           9
           6           5           0           0           0         110
           7           1           2
Charge                                     I                0
Multiplicity                               I                1
Number of electrons                        I               12
Number of alpha electrons                  I                6
Number of beta electrons                   I                6
Number of basis functions                  I               62
Number of independent functions            I               62
Number of point charges in /Mol/           I                0
Number of translation vectors              I                0
Atomic numbers                             I   N=           2
           6           6
Nuclear charges                            R   N=           2
  6.00000000E+00  6.00000000E+00
Current cartesian coordinates              R   N=           6
  0.00000000E+00  0.00000000E+00  0.00000000E+00  0.00000000E+00  0.00000000E+00
  3.77945227E+00
Force Field                                I                0
Int Atom Types                             I   N=           2
           0           0
MM charges                                 R   N=           2
  0.00000000E+00  0.00000000E+00
Integer atomic weights                     I   N=           2
          12          12
Real atomic weights                        R   N=           2
  1.20000000E+01  1.20000000E+01
Atom fragment info                         I   N=           2
           1           2
Atom residue num                           I   N=           2
           0           0
Nuclear spins                              I   N=           2
           0           0
Nuclear ZEff                               R   N=           2
 -3.60000000E+00 -3.60000000E+00
Nuclear QMom                               R   N=           2
  0.00000000E+00  0.00000000E+00
Nuclear GFac                               R   N=           2
  0.00000000E+00  0.00000000E+00
MicOpt                                     I   N=           2
          -1          -1
Number of contracted shells                I               22
Number of primitive shells                 I               40
Pure/Cartesian d shells                    I                0
Pure/Cartesian f shells                    I                0
Highest angular momentum                   I                3
Largest degree of contraction              I                6
Shell types                                I   N=          22
           0           0           0           0           0           1
           1           1          -2          -2          -3           0
           0           0           0           0           1           1
           1          -2          -2          -3
Number of primitives per shell             I   N=          22
           6           2           1           1           1           4
           1           1           1           1           1           6
           2           1           1           1           4           1
           1           1           1           1
Shell to atom map                          I   N=          22
           1           1           1           1           1           1
           1           1           1           1           1           2
           2           2           2           2           2           2
           2           2           2           2
Primitive exponents                        R   N=          40
  1.35753497E+04  2.03523337E+03  4.63225624E+02  1.31200196E+02  4.28530159E+01
  1.55841858E+01  6.20671385E+00  2.57648965E+00  5.76963394E-01  2.29728314E-01
  9.51644400E-02  3.46972322E+01  7.95826228E+00  2.37808269E+00  8.14332082E-01
  2.88875473E-01  1.00568237E-01  1.09700000E+00  3.18000000E-01  7.61000000E-01
  1.35753497E+04  2.03523337E+03  4.63225624E+02  1.31200196E+02  4.28530159E+01
  1.55841858E+01  6.20671385E+00  2.57648965E+00  5.76963394E-01  2.29728314E-01
  9.51644400E-02  3.46972322E+01  7.95826228E+00  2.37808269E+00  8.14332082E-01
  2.88875473E-01  1.00568237E-01  1.09700000E+00  3.18000000E-01  7.61000000E-01
Contraction coefficients                   R   N=          40
  6.06455036E-04  4.69790889E-03  2.43324776E-02  9.73999683E-02  3.01955843E-01
  6.62336091E-01  6.55953085E-01  3.75856333E-01  1.00000000E+00  1.00000000E+00
  1.00000000E+00  1.13272200E-02  7.61696592E-02  3.01922522E-01  7.27850273E-01
  1.00000000E+00  1.00000000E+00  1.00000000E+00  1.00000000E+00  1.00000000E+00
  6.06455036E-04  4.69790889E-03  2.43324776E-02  9.73999683E-02  3.01955843E-01
  6.62336091E-01  6.55953085E-01  3.75856333E-01  1.00000000E+00  1.00000000E+00
  1.00000000E+00  1.13272200E-02  7.61696592E-02  3.01922522E-01  7.27850273E-01
  1.00000000E+00  1.00000000E+00  1.00000000E+00  1.00000000E+00  1.00000000E+00
Coordinates of each shell                  R   N=          66
  0.00000000E+00  0.00000000E+00  0.00000000E+00  0.00000000E+00  0.00000000E+00
  0.00000000E+00  0.00000000E+00  0.00000000E+00  0.00000000E+00  0.00000000E+00
  0.00000000E+00  0.00000000E+00  0.00000000E+00  0.00000000E+00  0.00000000E+00
  0.00000000E+00  0.00000000E+00  0.00000000E+00  0.00000000E+00  0.00000000E+00
  0.00000000E+00  0.00000000E+00  0.00000000E+00  0.00000000E+00  0.00000000E+00
  0.00000000E+00  0.00000000E+00  0.00000000E+00  0.00000000E+00  0.00000000E+00
  0.00000000E+00  0.00000000E+00  0.00000000E+00  0.00000000E+00  0.00000000E+00
  3.77945227E+00  0.00000000E+00  0.00000000E+00  3.77945227E+00  0.00000000E+00
  0.00000000E+00  3.77945227E+00  0.00000000E+00  0.00000000E+00  3.77945227E+00
  0.00000000E+00  0.00000000E+00  3.77945227E+00  0.00000000E+00  0.00000000E+00
  3.77945227E+00  0.00000000E+00  0.00000000E+00  3.77945227E+00  0.00000000E+00
  0.00000000E+00  3.77945227E+00  0.00000000E+00  0.00000000E+00  3.77945227E+00
  0.00000000E+00  0.00000000E+00  3.77945227E+00  0.00000000E+00  0.00000000E+00
  3.77945227E+00
Constraint Structure                       R   N=           6
  0.00000000E+00  0.00000000E+00  0.00000000E+00  0.00000000E+00  0.00000000E+00
  3.77945227E+00
Num ILSW                                   I              100
ILSW                                       I   N=         100
           1           0           0           0           2           1
           0           0           0           0           0          -1
           0           0           0           0           0           0
           0           0           0           0           0           0
           1           1           0           0           0           0
           0           0      100000           0          -1           0
           0           0           0           0           0           0
           0           0           0           1           0           0
           0           0           1           0           0           0
           0           0           4          40           0           0
           0           0           0           0           0           0
           0           0           0           0           0           0
           0           0           0           0           0           0
           0           0           0           0           0           0
           0           0           0           0           0           0
           0           0           0           0           0           0
           0           0           0           0
Num RLSW                                   I               40
RLSW                                       R   N=          40
  1.00000000E+00  1.00000000E+00  1.00000000E+00  1.00000000E+00  1.00000000E+00
  0.00000000E+00  0.00000000E+00  1.00000000E+00  0.00000000E+00  0.00000000E+00
  0.00000000E+00  0.00000000E+00  1.00000000E+00  0.00000000E+00  0.00000000E+00
  0.00000000E+00  0.00000000E+00  1.00000000E+00  0.00000000E+00  0.00000000E+00
  0.00000000E+00  0.00000000E+00  1.00000000E+00  0.00000000E+00  0.00000000E+00
  0.00000000E+00  0.00000000E+00  1.00000000E+00  0.00000000E+00  0.00000000E+00
  0.00000000E+00  0.00000000E+00  1.00000000E+00  0.00000000E+00  0.00000000E+00
  0.00000000E+00  0.00000000E+00  0.00000000E+00  1.00000000E+00  1.00000000E+00
ECP-MxAtEC                                 I           250000
ECP-MaxLECP                                I               10
ECP-MaxAtL                                 I          2250000
ECP-MxTECP                                 I         11250000
ECP-LenNCZ                                 I                0
ECP-KFirst                                 I   N=          20
           0           0           0           0           0           0
           0           0           0           0           0           0
           0           0           0           0           0           0
           0           0
ECP-KLast                                  I   N=          20
           0           0           0           0           0           0
           0           0           0           0           0           0
           0           0           0           0           0           0
           0           0
ECP-LMax                                   I   N=           2
           0           0
ECP-LPSkip                                 I   N=           2
           1           1
ECP-RNFroz                                 R   N=           2
  0.00000000E+00  0.00000000E+00
ECP-NLP                                    I                0
ECP-CLP1                                   R      0.000000000000000E+00
ECP-CLP2                                   R      0.000000000000000E+00
ECP-ZLP                                    R      0.000000000000000E+00
MxBond                                     I                1
NBond                                      I   N=           2
           0           0
IBond                                      I   N=           2
           0           0
RBond                                      R   N=           2
  0.00000000E+00  0.00000000E+00
Virial Ratio                               R      2.002767418515293E+00
SCF Energy                                 R     -7.539833080752248E+01
Total Energy                               R     -7.539833080752248E+01
S**2                                       R      1.995806237313542E+00
S**2 after annihilation                    R      5.202194813231433E+00
RMS Density                                R      5.365533649607990E-09
External E-field                           R   N=          35
  0.00000000E+00  0.00000000E+00  0.00000000E+00  0.00000000E+00  0.00000000E+00
  0.00000000E+00  0.00000000E+00  0.00000000E+00  0.00000000E+00  0.00000000E+00
  0.00000000E+00  0.00000000E+00  0.00000000E+00  0.00000000E+00  0.00000000E+00
  0.00000000E+00  0.00000000E+00  0.00000000E+00  0.00000000E+00  0.00000000E+00
  0.00000000E+00  0.00000000E+00  0.00000000E+00  0.00000000E+00  0.00000000E+00
  0.00000000E+00  0.00000000E+00  0.00000000E+00  0.00000000E+00  0.00000000E+00
  0.00000000E+00  0.00000000E+00  0.00000000E+00  0.00000000E+00  0.00000000E+00
IOpCl                                      I                1
IROHF                                      I                0
Alpha Orbital Energies                     R   N=          62
 -1.13680605E+01 -1.13313133E+01 -8.61582354E-01 -6.24951968E-01 -4.45891100E-01
 -4.22314196E-01  1.27151130E-02  8.40346292E-02  1.09671800E-01  1.85235203E-01
  2.51884099E-01  3.38320782E-01  3.38918724E-01  3.68137535E-01  3.92128148E-01
  4.32925544E-01  4.52157819E-01  4.69293814E-01  7.61859319E-01  7.63111557E-01
  8.00890797E-01  8.00968371E-01  9.47091520E-01  9.48042656E-01  1.07935176E+00
  1.18158609E+00  1.19354711E+00  1.29245471E+00  1.45121152E+00  1.55317465E+00
  1.63501636E+00  1.64896693E+00  1.74352177E+00  1.77428281E+00  1.79613971E+00
  2.35080466E+00  2.72863452E+00  2.74622459E+00  2.74855268E+00  2.83107160E+00
  2.83227246E+00  2.92643471E+00  2.92643882E+00  2.99167103E+00  2.99168148E+00
  3.08589198E+00  3.08634003E+00  3.23332557E+00  3.23378200E+00  3.24298690E+00
  3.24789065E+00  3.32573906E+00  3.34154825E+00  3.35588127E+00  3.36760417E+00
  3.40462840E+00  3.71229062E+00  3.73258697E+00  3.74086652E+00  4.37313563E+00
  2.23092171E+01  2.25475677E+01
Beta Orbital Energies                      R   N=          62
 -1.13680606E+01 -1.13313132E+01 -8.61582387E-01 -6.24951982E-01 -4.45891155E-01
 -4.22314245E-01  1.27151003E-02  8.40347236E-02  1.09671833E-01  1.85235186E-01
  2.51884089E-01  3.38320752E-01  3.38918701E-01  3.68137518E-01  3.92128127E-01
  4.32925595E-01  4.52157853E-01  4.69293815E-01  7.61859321E-01  7.63111540E-01
  8.00890805E-01  8.00968362E-01  9.47091561E-01  9.48042697E-01  1.07935172E+00
  1.18158609E+00  1.19354709E+00  1.29245469E+00  1.45121150E+00  1.55317464E+00
  1.63501632E+00  1.64896695E+00  1.74352173E+00  1.77428287E+00  1.79613974E+00
  2.35080465E+00  2.72863452E+00  2.74622457E+00  2.74855266E+00  2.83107158E+00
  2.83227244E+00  2.92643467E+00  2.92643878E+00  2.99167110E+00  2.99168155E+00
  3.08589199E+00  3.08634004E+00  3.23332556E+00  3.23378199E+00  3.24298689E+00
  3.24789061E+00  3.32573907E+00  3.34154826E+00  3.35588134E+00  3.36760421E+00
  3.40462836E+00  3.71229061E+00  3.73258695E+00  3.74086649E+00  4.37313560E+00
  2.23092171E+01  2.25475677E+01
Alpha MO coefficients                      R   N=        3844
  4.67316351E-01  6.12983536E-01  1.90496836E-02 -7.82435926E-03  3.15595437E-03
 -9.15777875E-05 -4.20240720E-04  1.27330227E-03 -1.15143625E-06 -5.28381845E-06
 -1.32133676E-03 -6.43419656E-06 -2.95258432E-05  6.79500295E-04 -1.66420880E-04
  2.03126166E-04  9.32124357E-04  7.47999698E-04 -3.42257509E-04 -4.21252711E-04
  2.01696476E-05  9.25563661E-05  9.56531749E-05 -4.37674206E-05 -1.14277102E-04
  9.42142072E-06  4.32338969E-05  1.89332258E-05 -8.66315685E-06 -1.04482212E-05
 -1.39255068E-05  9.30779623E-04  1.25829156E-03 -5.44794050E-04  1.42401073E-03
 -1.09549422E-03  4.18560314E-06  1.92072873E-05  7.80004725E-05  7.66950045E-06
  3.51945212E-05 -9.43794357E-04  4.99424525E-06  2.29180599E-05  3.83966638E-04
  2.28409859E-05 -1.23986128E-06 -5.68959144E-06 -2.92926968E-06  1.34032747E-06
  4.82644066E-04 -1.03124935E-05 -4.73229353E-05  3.88992518E-06 -1.77988855E-06
 -7.15375088E-05  5.01164976E-06  2.29979273E-05 -6.48444444E-07  2.96704638E-07
 -1.74031651E-07 -2.31951343E-07 -9.57819093E-04 -1.23513539E-03 -4.58458117E-04
  1.13573060E-03 -5.07415104E-04  5.30162290E-06  2.43285832E-05 -5.05404460E-05
  1.90895021E-05  8.75996935E-05  8.24975889E-04  1.58209839E-06  7.26008113E-06
 -1.19964077E-04  1.53809748E-05 -1.09132054E-06 -5.00795379E-06  3.09668752E-06
 -1.41693180E-06  4.36309421E-04  2.17330795E-05  9.97307888E-05 -9.77023366E-06
  4.47050426E-06  6.45060865E-05  9.69186267E-06  4.44749262E-05 -4.66506920E-06
  2.13456632E-06  8.94668702E-08  1.19242452E-07  4.68614884E-01  6.13896041E-01
  1.33579504E-02 -5.45841295E-03  1.62821646E-03  4.11799113E-05  1.88970230E-04
 -1.07800435E-03 -9.23931755E-05 -4.23982448E-04  1.38471340E-03  2.71428621E-05
  1.24555705E-04 -4.21244695E-04  2.98959171E-04 -1.40125994E-04 -6.43023272E-04
 -4.45548842E-04  2.03866976E-04 -4.05139429E-04  3.08363044E-05  1.41504519E-04
  1.16783439E-04 -5.34358622E-05  9.29858318E-05  1.15214869E-06  5.28708770E-06
 -4.42292785E-06  2.02377123E-06  1.91004350E-06  2.54572747E-06 -1.00765334E-01
 -2.26832772E-01  3.82902607E-01  4.97929334E-01  1.21441821E-01 -6.70237896E-03
 -3.07565037E-02  4.66908411E-02 -5.49033572E-03 -2.51945663E-02  5.75195118E-02
 -6.89969176E-04 -3.16619511E-03  8.11167749E-03  1.08244516E-04  2.19752186E-03
  1.00841939E-02  7.16036349E-03 -3.27632241E-03  4.86022133E-03  5.54541031E-03
  2.54472977E-02  1.39798710E-02 -6.39668151E-03  2.74379360E-03  6.24456900E-04
  2.86556625E-03  4.82772525E-04 -2.20899182E-04 -2.55328631E-04 -3.40304874E-04
 -3.34956203E-02 -7.44721511E-02  1.16185242E-01  1.48396763E-01  2.74599218E-02
 -1.73952200E-03 -7.98248130E-03 -3.51820490E-02 -9.22535131E-04 -4.23341553E-03
 -3.34896588E-02  3.42594282E-04  1.57212870E-03 -5.30355512E-04  5.80838011E-03
 -7.18444259E-04 -3.29686424E-03 -2.31248510E-03  1.05810924E-03  1.12734890E-02
 -2.48237932E-03 -1.13913745E-02 -4.49004027E-03  2.05447944E-03 -3.13745776E-03
  5.09909293E-04  2.33991947E-03  6.50182659E-04 -2.97499983E-04  4.06959427E-05
  5.42400105E-05  4.23623692E-02  9.63292609E-02 -1.74027636E-01 -2.15284852E-01
 -9.28384572E-02  1.77442651E-02  8.14265439E-02  1.16495952E-01  1.74678499E-02
  8.01581041E-02  1.17325022E-01  6.61562573E-03  3.03584023E-02  3.63574146E-02
  7.73098696E-03 -9.63095357E-04 -4.41954208E-03 -2.10326128E-03  9.62376012E-04
  1.92521995E-02 -1.75502304E-03 -8.05361391E-03 -5.31278294E-03  2.43093662E-03
  1.41229510E-03  1.41945941E-04  6.51374815E-04 -2.95442715E-04  1.35183862E-04
  2.18640319E-04  2.91406278E-04 -9.17204930E-02 -2.06036216E-01  3.38429668E-01
  4.52914620E-01  1.87441379E-01 -1.32738355E-02 -6.09122182E-02  4.06849548E-02
 -1.31108413E-02 -6.01642551E-02  3.68084636E-02 -5.26678547E-03 -2.41687179E-02
  1.87280202E-02  2.72641645E-03 -2.15213176E-03 -9.87590357E-03 -6.90005608E-03
  3.15721519E-03  6.82589255E-03 -4.80886614E-03 -2.20673749E-02 -1.58661090E-02
  7.25975551E-03 -1.38257092E-03  1.14692373E-04  5.26311091E-04 -9.41617567E-04
  4.30850017E-04  5.40260338E-04  7.20065059E-04  1.72192248E-15  8.56751429E-15
 -2.26015608E-14  1.36954968E-14 -1.45023391E-14  4.58229542E-01 -9.98562150E-02
 -3.52122911E-14  4.52229280E-01 -9.85486530E-02 -1.80265348E-14  2.27616423E-01
 -4.96015912E-02 -2.07905024E-14  6.96315213E-15  5.44389065E-03 -1.18631879E-03
 -2.69664327E-03 -5.89348166E-03 -3.80644575E-15  1.84512159E-02 -4.02084198E-03
 -5.21551357E-03 -1.13984426E-02 -1.56702901E-15 -3.07477336E-04  6.70046780E-05
  1.45643990E-03  3.18303200E-03  9.68577946E-04 -7.26718012E-04 -3.07730855E-15
 -6.95921654E-15  8.90092564E-15  2.81416009E-14  1.11888982E-14  3.23158849E-02
 -7.04219535E-03  3.36372686E-14  3.09683887E-02 -6.74855241E-03  2.50723233E-14
  1.48971341E-02 -3.24634553E-03  2.33374455E-14 -6.48726007E-15 -3.18425902E-03
  6.93905617E-04 -1.81393349E-04 -3.96432997E-04  2.61228418E-15 -1.05348578E-02
  2.29572939E-03  4.11934410E-04  9.00277733E-04 -1.09756391E-15  2.70861164E-03
 -5.90253751E-04 -5.22248119E-04 -1.14136703E-03 -6.68482395E-04  5.01558185E-04
  1.55978233E-03  4.18711542E-03 -2.06496551E-02  1.28106534E-02 -2.42638422E-02
  4.92042215E-02  2.25792935E-01  3.05138002E-01  5.09868600E-02  2.33973274E-01
  3.17222542E-01  2.73728203E-02  1.25610959E-01  1.53257216E-01  8.61417857E-03
  4.09874010E-05  1.88086821E-04  2.66612342E-03 -1.21992129E-03  2.64599379E-02
  2.53282021E-03  1.16228424E-02  3.72314996E-03 -1.70357827E-03 -3.17547599E-04
  9.83742979E-04  4.51429183E-03 -1.25788947E-03  5.75564559E-04  3.95635571E-04
  5.27307542E-04  3.04176257E-02  6.96751162E-02 -1.27977873E-01 -1.65867994E-01
 -1.45474962E-01  1.99470272E-02  9.15347850E-02 -1.55119555E-01  2.19025791E-02
  1.00508605E-01 -1.55725548E-01  1.24460054E-02  5.71133940E-02 -7.65113867E-02
  5.59920442E-03  5.08203142E-04  2.33209013E-03  3.17711718E-03 -1.45373349E-03
  1.56674034E-02 -7.24341876E-04 -3.32392777E-03  6.91828978E-03 -3.16555827E-03
 -2.15562588E-03  1.27239915E-03  5.83890428E-03  3.98843392E-03 -1.82496258E-03
 -1.08043251E-03 -1.44001261E-03 -8.78352275E-03 -2.07695711E-02  4.67436218E-02
 -3.73055775E-02  2.16900972E-01  5.01065936E-02  2.29933825E-01 -1.54287549E-01
  4.30337258E-02  1.97477188E-01 -1.42681125E-01  8.19983688E-02  3.76281787E-01
 -1.95656660E-01 -2.51577000E-03  1.31439982E-03  6.03164086E-03  3.58565068E-03
 -1.64066359E-03 -8.73429599E-03  4.61198182E-03  2.11638937E-02  1.00344863E-02
 -4.59141668E-03 -2.55972952E-03 -2.76982173E-04 -1.27104171E-03 -2.40244001E-03
  1.09926934E-03  4.42287223E-04  5.89485389E-04 -4.98243922E-03 -1.21143531E-02
  3.08533733E-02 -1.85281477E-02  1.47076770E-01  1.89498203E-02  8.69587082E-02
  1.34668950E-01  1.12792406E-02  5.17592347E-02  1.15445294E-01  3.67224041E-02
  1.68515204E-01  1.76218852E-01 -1.33910379E-03 -9.41211312E-04 -4.31911853E-03
  5.28290074E-04 -2.41726361E-04 -6.65574905E-04 -3.01934399E-03 -1.38554482E-02
 -3.13071965E-06  1.43250366E-06  3.22119817E-03 -3.96679636E-04 -1.82032063E-03
 -8.60422280E-05  3.93698002E-05 -1.27889420E-03 -1.70452459E-03  1.53628593E-02
  3.50259992E-02 -5.83066453E-02 -9.76131434E-02 -1.94099597E-01 -3.80662983E-02
 -1.74682191E-01 -6.44966366E-02 -3.67467079E-02 -1.68626731E-01 -7.23527282E-02
 -6.70369586E-02 -3.07625468E-01 -1.15091786E-01  3.06732950E-03  8.42158534E-04
  3.86457588E-03 -3.45730441E-03  1.58193700E-03  6.64672407E-03  1.81053180E-03
  8.30833773E-03 -1.25848189E-02  5.75835628E-03  2.34419465E-03  4.83771524E-04
  2.21997603E-03  9.55724903E-04 -4.37305022E-04 -2.36154267E-04 -3.14749066E-04
 -1.95340600E-02 -4.40107318E-02  6.63508653E-02  6.60701125E-02  2.57119091E-01
  6.09744621E-02  2.79805317E-01 -8.79287469E-02  4.66680925E-02  2.14154909E-01
 -1.02052518E-01  1.38852552E-01  6.37179584E-01 -1.83785412E-01 -3.21613621E-04
  5.08617249E-04  2.33399042E-03  1.20544874E-03 -5.51569584E-04  9.18005539E-03
 -3.32698392E-04 -1.52671751E-03  6.42236348E-03 -2.93864039E-03  3.38235137E-03
  3.29462401E-04  1.51186789E-03  5.86478586E-03 -2.68351312E-03 -3.59172544E-03
 -4.78709210E-03  6.82107004E-15  1.59541097E-14 -3.17531607E-14 -2.09124440E-14
 -1.30810400E-13 -1.08144347E-01  2.35665408E-02 -2.13235554E-14 -1.24396703E-01
  2.71082128E-02 -2.49422527E-14 -1.26446056E-01  2.75548025E-02 -4.22163672E-14
  2.17806640E-15  6.28621786E-03 -1.36987659E-03  7.29380077E-04  1.59405145E-03
  4.90396162E-15  1.98841016E-02 -4.33309278E-03  3.00879787E-03  6.57569180E-03
  1.05813914E-15  3.35964206E-03 -7.32124642E-04 -1.69743631E-04 -3.70972678E-04
 -1.38134628E-04  1.03641553E-04 -6.56815222E-15 -1.31092411E-14  8.40206309E-15
  7.15290460E-14  2.57692310E-14  2.85857478E-01 -6.22933337E-02 -6.04489070E-14
  1.69992848E-01 -3.70444085E-02 -5.80036078E-14  7.50987679E-01 -1.63653323E-01
 -1.37966975E-13  4.13612493E-16  2.03602110E-03 -4.43684534E-04 -1.18506119E-03
 -2.58993708E-03  7.86906491E-15 -1.49559127E-03  3.25915440E-04 -5.65525992E-03
 -1.23595030E-02  7.11680108E-16  3.45050040E-03 -7.51924260E-04 -2.29776538E-03
 -5.02173879E-03 -5.08109257E-03  3.81231217E-03 -3.23568643E-02 -7.00925636E-02
  6.02806508E-02  5.45719631E-01  5.11504692E-01 -9.23109295E-03 -4.23605031E-02
  1.72336006E-01 -5.73347369E-03 -2.63103005E-02  1.09957437E-01 -3.25901785E-02
 -1.49552861E-01  1.05151415E+00 -1.56428783E-02  2.07315040E-04  9.51346652E-04
  1.08968452E-03 -4.98600081E-04  1.65585071E-02 -1.42281698E-03 -6.52915570E-03
  4.88638688E-03 -2.23583326E-03 -7.37645739E-04  3.89933364E-04  1.78936270E-03
  7.89651060E-04 -3.61315660E-04 -1.38767029E-04 -1.84950258E-04  2.94622937E-02
  6.37626242E-02 -5.42026434E-02 -3.54206541E-01 -6.74199435E-01  1.04516129E-02
  4.79613392E-02  2.22415538E-01  5.20122572E-03  2.38678712E-02  1.27815058E-01
  3.46652735E-02  1.59075250E-01  1.24288584E+00  1.35777449E-02  5.69897488E-04
  2.61519891E-03  2.73263450E-03 -1.25035435E-03 -3.03869675E-02 -1.23656096E-03
 -5.67444663E-03  9.39178227E-03 -4.29733864E-03  4.27798455E-03 -1.02405645E-03
 -4.69928606E-03 -2.74509871E-03  1.25605752E-03 -6.10617755E-04 -8.13838217E-04
  3.39372658E-02  6.35774058E-02  1.08708452E-01 -1.45232681E+00  1.61021541E+00
  3.36951834E-03  1.54623610E-02  7.23463356E-02  1.56177179E-02  7.16680453E-02
  1.10353102E-01 -3.86216726E-02 -1.77230745E-01  4.90953951E-02 -5.27313310E-03
 -6.93915263E-04 -3.18430328E-03 -1.53077223E-04  7.00425807E-05 -1.05631338E-02
 -3.69679631E-04 -1.69642048E-03 -2.76479790E-03  1.26507116E-03  2.49822183E-03
  1.21842026E-04  5.59120090E-04  1.55430121E-04 -7.11191813E-05 -2.92910191E-05
 -3.90394000E-05  3.63833061E-02  6.92342946E-02  9.96770329E-02 -1.35207903E+00
  1.05509520E+00  4.89309733E-03  2.24539028E-02 -2.09306726E-02  1.47610233E-02
  6.77367650E-02 -5.60774255E-02 -1.81115743E-02 -8.31120866E-02  2.65261528E-01
 -2.83843802E-03  1.12810794E-03  5.17676727E-03  3.82691623E-03 -1.75105795E-03
 -1.22375863E-02 -3.56467521E-04 -1.63579151E-03 -1.37763530E-03  6.30355903E-04
 -3.21967081E-03  1.20361030E-04  5.52323957E-04  5.12921842E-04 -2.34694416E-04
 -1.25847248E-04 -1.67730629E-04  3.21175421E-03  2.24279210E-03  6.53607456E-02
 -3.08662816E-01  6.59454065E-01  2.63810845E-02  1.21059989E-01  1.98953079E-01
  9.44652312E-02  4.33490892E-01  5.40792971E-01 -1.76916993E-01 -8.11853249E-01
 -7.25890203E-01  1.22195570E-02  4.38170253E-04  2.01071665E-03  1.28654616E-03
 -5.88676819E-04 -3.18145549E-02  2.28808538E-03  1.04997803E-02  2.30610036E-03
 -1.05518781E-03 -8.85751104E-03  1.62826042E-04  7.47191378E-04 -1.97961655E-04
  9.05800671E-05  7.55657817E-06  1.00714924E-05 -1.26878566E-02 -1.76313723E-02
 -1.54612351E-01  1.05090210E+00 -1.01191761E+00  6.83375687E-03  3.13593829E-02
  1.35787366E-01  1.38135562E-02  6.33889390E-02  6.09384027E-02  3.85286796E-02
  1.76804010E-01  2.84070526E-01  6.19944961E-03  3.75974615E-04  1.72530749E-03
 -1.42785528E-03  6.53334746E-04  5.91298591E-02 -7.14698793E-03 -3.27967669E-02
  1.00729687E-02 -4.60902484E-03  4.93737627E-04 -1.72230472E-05 -7.90347304E-05
 -1.28657085E-03  5.88688117E-04 -4.64307292E-04 -6.18833985E-04 -1.42793272E-14
 -1.18350538E-14 -2.44043146E-13  1.15503571E-12 -2.24063255E-12 -2.11054822E-01
  4.59925294E-02 -6.82667732E-13 -7.44222926E-01  1.62179165E-01 -1.83330853E-12
  1.38040591E+00 -3.00814541E-01  2.49589189E-12 -4.00149373E-14 -6.99162233E-03
  1.52359653E-03  1.23529609E-03  2.69972486E-03  1.19808776E-13 -3.33156258E-02
  7.26005633E-03  1.23652488E-03  2.70241036E-03  3.01547989E-14 -3.95932074E-05
  8.62805092E-06 -2.11141227E-04 -4.61446630E-04  2.39513282E-06 -1.79705327E-06
  4.20781185E-14  5.76971996E-14  5.17624314E-13 -3.48891512E-12  3.31271496E-12
 -7.54480072E-02  1.64414376E-02 -4.74507856E-13 -1.81225101E-01  3.94921126E-02
 -2.57811813E-13 -1.61412906E-01  3.51746894E-02 -8.23831434E-13 -1.91906012E-14
 -7.47830881E-03  1.62965401E-03  3.01990450E-04  6.59996522E-04 -2.05658730E-13
  4.78060674E-02 -1.04177765E-02  1.90944638E-03  4.17307226E-03 -7.41555872E-17
 -4.48992305E-03  9.78432597E-04  6.27223046E-04  1.37078847E-03  1.22941639E-03
 -9.22423472E-04  1.14955762E-02  1.48783675E-02  1.63937982E-01 -1.13964158E+00
  1.86928481E+00 -2.19238232E-02 -1.00606091E-01  1.20041373E-01 -7.29389161E-02
 -3.34708923E-01  3.34802241E-02  6.78841560E-02  3.11513167E-01  8.41125287E-01
 -1.44294590E-02 -4.11289732E-04 -1.88736481E-03 -5.81145253E-04  2.65910972E-04
 -4.88693222E-02 -1.03635165E-02 -4.75570740E-02 -6.21962171E-05  2.84587312E-05
 -3.31965767E-04 -2.61885038E-04 -1.20176257E-03  8.22014931E-04 -3.76124193E-04
 -8.95724046E-05 -1.19383109E-04 -5.31849230E-03 -5.02620036E-03 -9.76876595E-02
  6.63031888E-01 -1.72372750E+00 -2.86495035E-02 -1.31469522E-01  2.01321332E-01
 -9.72133323E-02 -4.46101635E-01  5.20999785E-01  1.26263670E-01  5.79410544E-01
  3.19076430E-03 -2.51177316E-03 -5.78934010E-04 -2.65666655E-03 -2.04519213E-03
  9.35805678E-04  3.06079152E-03  5.27494516E-03  2.42061619E-02  1.08266827E-03
 -4.95389699E-04 -6.24564651E-03 -1.05349535E-03 -4.83437805E-03 -4.35568604E-03
  1.99300382E-03  1.35672060E-03  1.80825249E-03 -2.86759728E-03 -6.39233711E-03
  2.05528987E-02 -2.25319966E-01  3.67933772E-01  3.94693260E-02  1.81120536E-01
 -1.23910711E-01  1.29039481E-01  5.92148443E-01 -5.33613347E-01 -1.76891290E-01
 -8.11735302E-01  1.06058296E+00 -1.59639084E-02  1.22835544E-03  5.63679238E-03
  3.49182575E-03 -1.59773271E-03 -9.89343764E-03  6.65437044E-03  3.05361977E-02
  8.75486421E-03 -4.00590806E-03  5.64299954E-03 -1.50179959E-04 -6.89159848E-04
 -9.39532537E-04  4.29895983E-04  7.06807420E-05  9.42040885E-05 -5.35661829E-03
 -1.21702501E-02  2.77662266E-02 -2.88462609E-02 -5.29492748E-01  1.09265898E-02
  5.01409575E-02  8.89417556E-02  3.59483617E-02  1.64963206E-01  4.53735120E-01
  1.22368322E-03  5.61535207E-03 -4.66399663E-01 -7.72184372E-03  5.90771084E-04
  2.71098563E-03  1.50062853E-04 -6.86633141E-05 -3.27688793E-02 -9.33394094E-03
 -4.28324615E-02 -3.23040993E-03  1.47811832E-03 -3.04196589E-03  2.75587306E-04
  1.26464081E-03  6.52648552E-06 -2.98628286E-06 -6.79995998E-04 -9.06306320E-04
 -1.03053456E-02 -1.76901407E-02 -7.45949050E-02  7.78077411E-01 -2.04858160E+00
  2.36151655E-02  1.08367481E-01 -1.23496497E-02  7.16593056E-02  3.28836926E-01
  1.12837752E-02 -1.59553021E-01 -7.32171833E-01 -1.03479286E+00  1.16937326E-02
  1.98057105E-03  9.08862973E-03  1.28982779E-03 -5.90178374E-04 -2.80806736E-02
 -9.02580995E-03 -4.14184812E-02  3.43168928E-03 -1.57021644E-03 -2.88440060E-03
 -1.39042043E-03 -6.38049136E-03 -3.02779158E-04  1.38540752E-04  8.57788181E-05
  1.14326974E-04  1.57510866E-02  2.75357559E-02  9.96367397E-02 -9.41317875E-01
  2.20323304E+00 -5.35055725E-02 -2.45531378E-01 -4.62640367E-02 -1.73907553E-01
 -7.98043250E-01 -1.07264220E-01  2.58580972E-01  1.18660056E+00 -8.73975530E-01
 -1.05125235E-02  1.68379926E-03  7.72677560E-03 -6.15049063E-04  2.81424125E-04
  3.22836206E-02 -8.27146832E-04 -3.79568878E-03 -9.67286297E-03  4.42595096E-03
 -5.27237378E-03  9.79738723E-04  4.49591672E-03 -2.82990444E-03  1.29486155E-03
  2.85164918E-03  3.80071013E-03 -3.27025212E-15 -5.54286770E-15 -3.13981938E-14
  2.97696195E-13 -7.73956832E-13  6.23239180E-02 -1.35814695E-02 -5.25143090E-15