HF file generated by AutoMR of MOKIT
Stability RHF                                                         Gen
Number of atoms                            I                2
Info1-9                                    I   N=           9
           6           5           0           0           0         110
           7           1           2
Charge                                     I                0
Multiplicity                               I                1
Number of electrons                        I               12
Number of alpha electrons                  I                6
Number of beta electrons                   I                6
Number of basis functions                  I               62
Number of independent functions            I               62
Number of point charges in /Mol/           I                0
Number of translation vectors              I                0
Atomic numbers                             I   N=           2
           6           6
Nuclear charges                            R   N=           2
  6.00000000E+00  6.00000000E+00
Current cartesian coordinates              R   N=           6
  0.00000000E+00  0.00000000E+00  0.00000000E+00  0.00000000E+00  0.00000000E+00
  3.77945227E+00
Force Field                                I                0
Int Atom Types                             I   N=           2
           0           0
MM charges                                 R   N=           2
  0.00000000E+00  0.00000000E+00
Integer atomic weights                     I   N=           2
          12          12
Real atomic weights                        R   N=           2
  1.20000000E+01  1.20000000E+01
Atom fragment info                         I   N=           2
           1           2
Atom residue num                           I   N=           2
           0           0
Nuclear spins                              I   N=           2
           0           0
Nuclear ZEff                               R   N=           2
 -3.60000000E+00 -3.60000000E+00
Nuclear QMom                               R   N=           2
  0.00000000E+00  0.00000000E+00
Nuclear GFac                               R   N=           2
  0.00000000E+00  0.00000000E+00
MicOpt                                     I   N=           2
          -1          -1
Number of contracted shells                I               22
Number of primitive shells                 I               40
Pure/Cartesian d shells                    I                0
Pure/Cartesian f shells                    I                0
Highest angular momentum                   I                3
Largest degree of contraction              I                6
Shell types                                I   N=          22
           0           0           0           0           0           1
           1           1          -2          -2          -3           0
           0           0           0           0           1           1
           1          -2          -2          -3
Number of primitives per shell             I   N=          22
           6           2           1           1           1           4
           1           1           1           1           1           6
           2           1           1           1           4           1
           1           1           1           1
Shell to atom map                          I   N=          22
           1           1           1           1           1           1
           1           1           1           1           1           2
           2           2           2           2           2           2
           2           2           2           2
Primitive exponents                        R   N=          40
  1.35753497E+04  2.03523337E+03  4.63225624E+02  1.31200196E+02  4.28530159E+01
  1.55841858E+01  6.20671385E+00  2.57648965E+00  5.76963394E-01  2.29728314E-01
  9.51644400E-02  3.46972322E+01  7.95826228E+00  2.37808269E+00  8.14332082E-01
  2.88875473E-01  1.00568237E-01  1.09700000E+00  3.18000000E-01  7.61000000E-01
  1.35753497E+04  2.03523337E+03  4.63225624E+02  1.31200196E+02  4.28530159E+01
  1.55841858E+01  6.20671385E+00  2.57648965E+00  5.76963394E-01  2.29728314E-01
  9.51644400E-02  3.46972322E+01  7.95826228E+00  2.37808269E+00  8.14332082E-01
  2.88875473E-01  1.00568237E-01  1.09700000E+00  3.18000000E-01  7.61000000E-01
Contraction coefficients                   R   N=          40
  6.06455036E-04  4.69790889E-03  2.43324776E-02  9.73999683E-02  3.01955843E-01
  6.62336091E-01  6.55953085E-01  3.75856333E-01  1.00000000E+00  1.00000000E+00
  1.00000000E+00  1.13272200E-02  7.61696592E-02  3.01922522E-01  7.27850273E-01
  1.00000000E+00  1.00000000E+00  1.00000000E+00  1.00000000E+00  1.00000000E+00
  6.06455036E-04  4.69790889E-03  2.43324776E-02  9.73999683E-02  3.01955843E-01
  6.62336091E-01  6.55953085E-01  3.75856333E-01  1.00000000E+00  1.00000000E+00
  1.00000000E+00  1.13272200E-02  7.61696592E-02  3.01922522E-01  7.27850273E-01
  1.00000000E+00  1.00000000E+00  1.00000000E+00  1.00000000E+00  1.00000000E+00
Coordinates of each shell                  R   N=          66
  0.00000000E+00  0.00000000E+00  0.00000000E+00  0.00000000E+00  0.00000000E+00
  0.00000000E+00  0.00000000E+00  0.00000000E+00  0.00000000E+00  0.00000000E+00
  0.00000000E+00  0.00000000E+00  0.00000000E+00  0.00000000E+00  0.00000000E+00
  0.00000000E+00  0.00000000E+00  0.00000000E+00  0.00000000E+00  0.00000000E+00
  0.00000000E+00  0.00000000E+00  0.00000000E+00  0.00000000E+00  0.00000000E+00
  0.00000000E+00  0.00000000E+00  0.00000000E+00  0.00000000E+00  0.00000000E+00
  0.00000000E+00  0.00000000E+00  0.00000000E+00  0.00000000E+00  0.00000000E+00
  3.77945227E+00  0.00000000E+00  0.00000000E+00  3.77945227E+00  0.00000000E+00
  0.00000000E+00  3.77945227E+00  0.00000000E+00  0.00000000E+00  3.77945227E+00
  0.00000000E+00  0.00000000E+00  3.77945227E+00  0.00000000E+00  0.00000000E+00
  3.77945227E+00  0.00000000E+00  0.00000000E+00  3.77945227E+00  0.00000000E+00
  0.00000000E+00  3.77945227E+00  0.00000000E+00  0.00000000E+00  3.77945227E+00
  0.00000000E+00  0.00000000E+00  3.77945227E+00  0.00000000E+00  0.00000000E+00
  3.77945227E+00
Constraint Structure                       R   N=           6
  0.00000000E+00  0.00000000E+00  0.00000000E+00  0.00000000E+00  0.00000000E+00
  3.77945227E+00
Num ILSW                                   I              100
ILSW                                       I   N=         100
           0           0           0           0           2           1
           0           0           0           0           0          -1
           0           0           0           0           0           0
           0           0           0           0           0           0
           1           1           0           0           0           0
           0           0      100000           0          -1           0
           0           0           0           0           0           0
           0           0           0           1           0           0
           0           0           1           0           0           0
           0           0           4          40           0           0
           0           0           0           0           0           0
           0           0           0           0           0           0
           0           0           0           0           0           0
           0           0           0           0           0           0
           0           0           0           0           0           0
           0           0           0           0           0           0
           0           0           0           0
Num RLSW                                   I               40
RLSW                                       R   N=          40
  1.00000000E+00  1.00000000E+00  1.00000000E+00  1.00000000E+00  1.00000000E+00
  0.00000000E+00  0.00000000E+00  1.00000000E+00  0.00000000E+00  0.00000000E+00
  0.00000000E+00  0.00000000E+00  1.00000000E+00  0.00000000E+00  0.00000000E+00
  0.00000000E+00  0.00000000E+00  1.00000000E+00  0.00000000E+00  0.00000000E+00
  0.00000000E+00  0.00000000E+00  1.00000000E+00  0.00000000E+00  0.00000000E+00
  0.00000000E+00  0.00000000E+00  1.00000000E+00  0.00000000E+00  0.00000000E+00
  0.00000000E+00  0.00000000E+00  1.00000000E+00  0.00000000E+00  0.00000000E+00
  0.00000000E+00  0.00000000E+00  0.00000000E+00  1.00000000E+00  1.00000000E+00
ECP-MxAtEC                                 I           250000
ECP-MaxLECP                                I               10
ECP-MaxAtL                                 I          2250000
ECP-MxTECP                                 I         11250000
ECP-LenNCZ                                 I                0
ECP-KFirst                                 I   N=          20
           0           0           0           0           0           0
           0           0           0           0           0           0
           0           0           0           0           0           0
           0           0
ECP-KLast                                  I   N=          20
           0           0           0           0           0           0
           0           0           0           0           0           0
           0           0           0           0           0           0
           0           0
ECP-LMax                                   I   N=           2
           0           0
ECP-LPSkip                                 I   N=           2
           1           1
ECP-RNFroz                                 R   N=           2
  0.00000000E+00  0.00000000E+00
ECP-NLP                                    I                0
ECP-CLP1                                   R      0.000000000000000E+00
ECP-CLP2                                   R      0.000000000000000E+00
ECP-ZLP                                    R      0.000000000000000E+00
MxBond                                     I                1
NBond                                      I   N=           2
           0           0
IBond                                      I   N=           2
           0           0
RBond                                      R   N=           2
  0.00000000E+00  0.00000000E+00
Virial Ratio                               R      2.002767418515293E+00
SCF Energy                                 R     -7.539833080752248E+01
Total Energy                               R     -7.539833080752248E+01
S**2                                       R      1.995806237313542E+00
S**2 after annihilation                    R      5.202194813231433E+00
RMS Density                                R      5.365533649607990E-09
External E-field                           R   N=          35
  0.00000000E+00  0.00000000E+00  0.00000000E+00  0.00000000E+00  0.00000000E+00
  0.00000000E+00  0.00000000E+00  0.00000000E+00  0.00000000E+00  0.00000000E+00
  0.00000000E+00  0.00000000E+00  0.00000000E+00  0.00000000E+00  0.00000000E+00
  0.00000000E+00  0.00000000E+00  0.00000000E+00  0.00000000E+00  0.00000000E+00
  0.00000000E+00  0.00000000E+00  0.00000000E+00  0.00000000E+00  0.00000000E+00
  0.00000000E+00  0.00000000E+00  0.00000000E+00  0.00000000E+00  0.00000000E+00
  0.00000000E+00  0.00000000E+00  0.00000000E+00  0.00000000E+00  0.00000000E+00
IOpCl                                      I                0
IROHF                                      I                0
Alpha Orbital Energies                     R   N=          62
  0.00000000E+00  0.00000000E+00  0.00000000E+00  0.00000000E+00  0.00000000E+00
  0.00000000E+00  0.00000000E+00  0.00000000E+00  0.00000000E+00  0.00000000E+00
  0.00000000E+00  0.00000000E+00  0.00000000E+00  0.00000000E+00  0.00000000E+00
  0.00000000E+00  0.00000000E+00  0.00000000E+00  0.00000000E+00  0.00000000E+00
  0.00000000E+00  0.00000000E+00  0.00000000E+00  0.00000000E+00  0.00000000E+00
  0.00000000E+00  0.00000000E+00  0.00000000E+00  0.00000000E+00  0.00000000E+00
  0.00000000E+00  0.00000000E+00  0.00000000E+00  0.00000000E+00  0.00000000E+00
  0.00000000E+00  0.00000000E+00  0.00000000E+00  0.00000000E+00  0.00000000E+00
  0.00000000E+00  0.00000000E+00  0.00000000E+00  0.00000000E+00  0.00000000E+00
  0.00000000E+00  0.00000000E+00  0.00000000E+00  0.00000000E+00  0.00000000E+00
  0.00000000E+00  0.00000000E+00  0.00000000E+00  0.00000000E+00  0.00000000E+00
  0.00000000E+00  0.00000000E+00  0.00000000E+00  0.00000000E+00  0.00000000E+00
  0.00000000E+00  0.00000000E+00
Alpha MO coefficients                      R   N=        3844
 -3.31254143E-01 -4.35312749E-01 -1.00045725E-02  8.89025910E-03 -9.54356262E-04
  4.25340850E-05  1.95184389E-04 -1.53001633E-04 -2.04307430E-05 -9.37545052E-05
  1.17069856E-03  1.43103575E-05  6.56687075E-05 -2.26734661E-04  1.25365320E-04
 -1.24864313E-04 -5.72989044E-04 -4.70092610E-04  2.15097314E-04  7.91831774E-05
  1.82146221E-05  8.35849624E-05  5.75381899E-05 -2.63273870E-05  6.37237807E-05
 -7.32762289E-06 -3.36256815E-05 -6.43669876E-06  2.94519970E-06  5.48873804E-06
  7.31545184E-06 -3.31840071E-01 -4.35205228E-01 -7.27036397E-03  5.14651568E-03
  2.57571473E-04 -7.36011404E-05 -3.37747800E-04  4.47219815E-04  2.63149829E-05
  1.20756656E-04 -5.59280642E-04 -2.90981964E-05 -1.33528526E-04  5.04374217E-05
 -1.67074447E-04  8.86563241E-05  4.06834435E-04  2.80986509E-04 -1.28569227E-04
  6.43443100E-05 -4.75906207E-05 -2.18388293E-04 -1.59185299E-04  7.28374145E-05
 -4.70855059E-05  7.42317951E-07  3.40641806E-06  8.08945675E-06 -3.70144176E-06
  1.56987930E-07  2.09235279E-07 -3.30856806E-01 -4.34358512E-01 -1.21864187E-02
  8.35651225E-03 -1.99197565E-03  6.16943902E-06  2.83108993E-05 -1.07162303E-03
 -4.34717889E-05 -1.99487413E-04  1.41058730E-03 -1.17166098E-05 -5.37662754E-05
 -6.24191681E-04  1.09753626E-04 -1.35120451E-04 -6.20053370E-04 -4.98815645E-04
  2.28239932E-04  5.74110557E-04  2.22793705E-05  1.02237660E-04 -1.90944948E-05
  8.73694769E-06  1.31036779E-04  1.77963789E-06  8.16656884E-06 -1.45362835E-05
  6.65127565E-06  6.14271650E-06  8.18708170E-06  3.31501161E-01  4.34370257E-01
  9.34770687E-03 -5.56419629E-03  1.53522073E-03  5.49808819E-05  2.52301415E-04
 -1.03254089E-03 -3.99905178E-05 -1.83512230E-04  1.44813395E-03  3.04111918E-05
  1.39553723E-04 -6.21043346E-04  2.06562536E-04 -9.51732351E-05 -4.36739846E-04
 -3.03204610E-04  1.38735423E-04 -6.10182182E-04  3.36448070E-05  1.54392438E-04
  1.06408716E-04 -4.86887657E-05  1.10312517E-04 -1.42209188E-06 -6.52582826E-06
  1.79506751E-06 -8.21357730E-07  2.03758046E-07  2.71571017E-07 -1.03126561E-01
 -2.35044208E-01  4.05029651E-01  5.22494168E-01  1.99714969E-01 -3.82707084E-03
 -1.75620209E-02 -1.07597878E-01 -3.20223625E-03 -1.46947215E-02 -1.03785767E-01
 -7.92777675E-04 -3.63797246E-03 -5.71846736E-02 -2.53435740E-03  2.50962763E-05
  1.15164136E-04 -9.07482385E-04  4.15230996E-04 -6.03277609E-03  2.00981351E-04
  9.22282015E-04 -2.45310852E-03  1.12245341E-03  1.42673335E-03  2.88114139E-04
  1.32212512E-03  1.81957701E-03 -8.32572389E-04 -7.41809627E-04 -9.88692221E-04
  4.74414686E-03  9.99053826E-03 -1.60139896E-02 -3.07999976E-02 -2.21310753E-02
  5.48703670E-03  2.51794271E-02  2.33904976E-02  5.88896612E-03  2.70238385E-02
  2.62636325E-02  3.82871264E-03  1.75695546E-02  3.11184924E-02  2.04529880E-03
  2.09604005E-05  9.61850511E-05 -4.12944654E-04  1.88948484E-04  2.81242759E-03
 -4.10823187E-04 -1.88522386E-03 -4.80656841E-04  2.19931124E-04 -1.80778362E-03
  9.35945173E-05  4.29495278E-04 -4.15370830E-04  1.90058614E-04  1.16475880E-04
  1.55240364E-04  7.83153189E-06  1.76206312E-05 -2.27103544E-05 -4.13313958E-05
  2.13236570E-05  3.06865370E-01 -6.69166188E-02 -1.30329601E-04  3.02268812E-01
 -6.59147490E-02 -1.34779996E-04  1.51706688E-01 -3.30818082E-02 -6.03983342E-05
 -4.99524044E-06  5.39755712E-03 -1.17636196E-03 -1.57470349E-03 -3.43828193E-03
 -1.42787850E-05  1.81328486E-02 -3.95252716E-03 -3.52230542E-03 -7.69295279E-03
 -1.24471225E-06  1.50215978E-03 -3.27058121E-04  5.85702737E-04  1.27663104E-03
  1.87414234E-04 -1.41282204E-04  7.83049956E-06  1.76182864E-05 -2.27063278E-05
 -4.13261013E-05  2.13257804E-05  3.06884245E-01 -6.68301346E-02  1.30330437E-04
  3.02287595E-01 -6.58286440E-02  1.34780764E-04  1.51715947E-01 -3.30392800E-02
  6.03985941E-05 -4.99528326E-06 -5.39761058E-03  1.17609350E-03  1.57227231E-03
  3.43939611E-03 -1.42788673E-05 -1.81332769E-02  3.95049461E-03  3.51852034E-03
  7.69468787E-03  1.24471623E-06  1.50204178E-03 -3.27609850E-04  5.83118296E-04
  1.27781340E-03  1.88054495E-04 -1.40429635E-04 -4.74414640E-03 -9.99053741E-03
  1.60139910E-02  3.07999913E-02  2.21310847E-02  5.48704994E-03  2.51794743E-02
  2.33904629E-02  5.88897914E-03  2.70238848E-02  2.62635940E-02  3.82872253E-03
  1.75695933E-02  3.11184733E-02 -2.04529966E-03 -2.09597821E-05 -9.61824531E-05
  4.12945298E-04 -1.88948817E-04 -2.81243081E-03  4.10825067E-04  1.88523169E-03
  4.80658374E-04 -2.19931911E-04 -1.80778473E-03  9.35943130E-05  4.29494273E-04
 -4.15371082E-04  1.90058743E-04  1.16475603E-04  1.55239992E-04  1.03126563E-01
  2.35044215E-01 -4.05029667E-01 -5.22494186E-01 -1.99714937E-01 -3.82704846E-03
 -1.75619319E-02 -1.07597847E-01 -3.20221395E-03 -1.46946326E-02 -1.03785734E-01
 -7.92763094E-04 -3.63791228E-03 -5.71846542E-02  2.53435565E-03 -2.50973398E-05
 -1.15168778E-04  9.07481516E-04 -4.15230560E-04  6.03277376E-03 -2.00984948E-04
 -9.22297718E-04  2.45310645E-03 -1.12245238E-03  1.42673521E-03  2.88113087E-04
  1.32212022E-03  1.81957586E-03 -8.32571848E-04 -7.41810619E-04 -9.88693546E-04
 -1.64653655E-02 -3.70464217E-02  4.77471953E-02  8.68968794E-02 -4.48326656E-02
  1.99591576E-02  9.08888489E-02  2.74012511E-01  1.98697088E-02  9.04888869E-02
  2.83369232E-01  9.81417387E-03  4.46893450E-02  1.26984562E-01  1.05023396E-02
  6.38271293E-05  2.80555519E-04  2.55566914E-03 -1.17135949E-03  3.00206466E-02
  4.73548764E-04  2.13160764E-03  3.97854848E-03 -1.82486495E-03  2.61699449E-03
 -1.25568882E-04 -5.79656452E-04 -2.71647034E-03  1.24369290E-03  6.72749454E-04
  8.96462039E-04 -1.64653574E-02 -3.70464034E-02  4.77471660E-02  8.68968440E-02
 -4.48326758E-02 -1.96671955E-02 -9.09522677E-02 -2.74012581E-01 -1.95821191E-02
 -9.05513521E-02 -2.83369300E-01 -9.66982574E-03 -4.47206553E-02 -1.26984585E-01
  1.05023396E-02  5.86902771E-05  2.81663806E-04  2.55716476E-03 -1.16808770E-03
  3.00206476E-02  4.56291594E-04  2.13533076E-03  3.98189459E-03 -1.81754483E-03
 -2.61699461E-03  1.26996685E-04  5.79340045E-04  2.71702500E-03 -1.24247733E-03
 -6.72571952E-04 -8.96597475E-04 -2.09112435E-02 -5.08700131E-02  1.05333266E-01
  1.67708712E-01  1.01475238E-03  3.67172767E-02  1.67681542E-01  2.77245665E-01
  4.31687614E-02  1.97295568E-01  3.06661014E-01  2.87101271E-02  1.31343103E-01
  1.21051090E-01 -4.17132865E-03  6.45623354E-03  2.96226705E-02  2.25673195E-02
 -1.03289963E-02  6.97441422E-03  2.07496093E-02  9.52026910E-02  4.35610655E-02
 -1.99369863E-02 -2.47577788E-03  4.02807514E-03  1.84901450E-02  2.94129849E-03
 -1.34376194E-03 -1.75856326E-04 -2.35732730E-04  2.09112313E-02  5.08699856E-02
 -1.05333197E-01 -1.67708709E-01 -1.01463415E-03  3.63801436E-02  1.67754740E-01
  2.77245859E-01  4.28353098E-02  1.97367960E-01  3.06661240E-01  2.85417504E-02
  1.31379670E-01  1.21051127E-01  4.17127331E-03 -6.45443977E-03 -2.96230352E-02
 -2.25696180E-02  1.03240278E-02 -6.97452863E-03 -2.07433328E-02 -9.52040041E-02
 -4.35649215E-02  1.99287027E-02 -2.47574595E-03  4.03046200E-03  1.84896242E-02
  2.93974328E-03 -1.34718929E-03 -1.77152885E-04 -2.34761917E-04  1.23241994E-02
  2.91301710E-02 -5.21402583E-02 -9.28934920E-02 -1.72496022E-03 -1.05861292E-02
 -4.85786363E-02 -9.26070070E-02 -1.34115716E-02 -6.15442906E-02 -1.15687160E-01
 -4.92237803E-03 -2.25882769E-02 -1.41676418E-02  2.72592850E-04 -2.13956080E-03
 -9.81821690E-03 -8.45427681E-03  3.86837012E-03 -1.54709251E-02 -8.39234579E-03
 -3.85115819E-02 -1.21944521E-02  5.57973852E-03  2.29233802E-04 -2.48995560E-03
 -1.14261411E-02 -3.41150178E-03  1.56097942E-03  2.60578351E-04  3.47301732E-04
 -2.21869289E-02 -5.81281137E-02  1.57602478E-01  1.62581659E-01 -1.98660780E-01
  9.17294274E-02  4.20936595E-01 -2.02788935E-01  8.68170107E-02  3.98394038E-01
 -2.30224863E-01  3.08736146E-02  1.41675739E-01 -9.13552108E-02 -2.05971853E-02
  1.58636263E-02  7.27964926E-02  5.13572842E-02 -2.34992290E-02 -2.93785194E-02
  3.75780719E-02  1.72441772E-01  1.08406536E-01 -4.96028957E-02  7.15617277E-05
 -2.41116094E-03 -1.10645610E-02  2.04863831E-03 -9.37382564E-04 -1.24251979E-03
 -1.65604433E-03  9.94596475E-06  2.41951915E-05 -5.00995097E-05 -7.97669498E-05
 -4.82599492E-07  3.54328500E-01 -7.72979244E-02 -1.31866372E-04  3.50454481E-01
 -7.64684621E-02 -1.45857073E-04  1.76961717E-01 -3.86284933E-02 -5.75757873E-05
  1.98402150E-06  1.87686758E-03 -4.23760820E-04 -2.40516446E-03 -5.22808708E-03
 -3.31711473E-06  6.57627833E-03 -1.48051769E-03 -4.01713651E-03 -8.72464013E-03
  1.17755967E-06 -2.51120213E-03  5.38022855E-04  1.64480366E-03  3.59839525E-03
  1.36206237E-03 -1.02177206E-03 -9.94586728E-06 -2.41949073E-05  5.00984835E-05
  7.97662963E-05  4.84462089E-07 -3.54363276E-01  7.71383782E-02 -1.31865386E-04
 -3.50495392E-01  7.62807447E-02 -1.45856057E-04 -1.76988900E-01  3.85035222E-02
 -5.75750502E-05 -1.98380269E-06  1.88300095E-03 -3.95580799E-04 -2.38369744E-03
 -5.23791237E-03  3.31759210E-06  6.59598969E-03 -1.38995078E-03 -3.97569953E-03
 -8.74360521E-03  1.17754568E-06  2.50736391E-03 -5.55610281E-04 -1.64760067E-03
 -3.59711493E-03 -1.36189685E-03  1.02199764E-03 -2.21869304E-02 -5.81281131E-02
  1.57602460E-01  1.62581585E-01 -1.98660424E-01 -9.17293901E-02 -4.20936408E-01
  2.02789341E-01 -8.68169740E-02 -3.98393854E-01  2.30225230E-01 -3.08736087E-02
 -1.41675704E-01  9.13554474E-02 -2.05973107E-02  1.58636291E-02  7.27965053E-02
  5.13572052E-02 -2.34991928E-02 -2.93787800E-02  3.75780785E-02  1.72441803E-01
  1.08406357E-01 -4.96028139E-02 -7.15800490E-05  2.41115888E-03  1.10645515E-02
 -2.04864421E-03  9.37385223E-04  1.24251731E-03  1.65604105E-03  1.23242147E-02
  2.91302056E-02 -5.21403004E-02 -9.28936172E-02 -1.72516313E-03  1.05861245E-02
  4.85785990E-02  9.26071185E-02  1.34115658E-02  6.15442485E-02  1.15687295E-01
  4.92238592E-03  2.25883052E-02  1.41677256E-02  2.72572420E-04 -2.13955848E-03
 -9.81820614E-03 -8.45428502E-03  3.86837393E-03 -1.54709750E-02 -8.39234170E-03
 -3.85115628E-02 -1.21944817E-02  5.57975214E-03 -2.29212645E-04  2.48995389E-03
  1.14261334E-02  3.41150721E-03 -1.56098186E-03 -2.60578539E-04 -3.47302009E-04
  1.04230823E-01 -2.66503965E-01  1.15885909E+00 -2.96423800E+00  6.82213924E+00
 -9.07227261E-04 -4.16316934E-03  4.57429533E-02 -1.81053291E-03 -8.30834282E-03
 -5.54381935E-02  7.73691313E-04  3.55038709E-03  3.55936939E+00 -2.18793450E-01
 -1.87665515E-04 -8.61177075E-04 -2.47870625E-04  1.13416600E-04  8.00481623E-01
  7.99248661E-04  3.66766704E-03  2.25202729E-03 -1.03044594E-03  3.42987221E-02
  6.17682212E-05  2.83447792E-04  1.25614520E-04 -5.74766443E-05  2.36760753E-05
  3.15557397E-05 -1.04171042E-01  2.66021484E-01 -1.15790099E+00  2.96275770E+00
 -6.82144978E+00 -9.07285685E-04 -4.16343744E-03  4.57330261E-02 -1.81009787E-03
 -8.30634647E-03 -5.53540878E-02  7.73566734E-04  3.54981541E-03  3.55921675E+00
  2.18744181E-01  1.87653754E-04  8.61123104E-04  2.47528985E-04 -1.13260278E-04
 -8.00348045E-01 -7.99408119E-04 -3.66839877E-03 -2.25180898E-03  1.03034605E-03
  3.42781341E-02  6.18571420E-05  2.83855841E-04  1.25740936E-04 -5.75344877E-05
  2.35968183E-05  3.14501051E-05  2.21373803E-01 -5.43210126E-01  2.55182034E+00
 -3.88691919E+00 -1.22909085E+00  3.97432396E-04  1.82377496E-03  6.80247618E-01
  7.49252514E-04  3.43824004E-03 -2.51158163E+00  4.45703677E-05  2.04528681E-04
 -1.27102270E+00  3.42067804E-01 -1.51245821E-04 -6.94050979E-04 -3.13790852E-04
  1.43579303E-04 -1.97648033E+00  9.06295049E-04  4.15889152E-03  3.58659915E-03
 -1.64109758E-03 -5.45535146E-01  2.12140766E-05  9.73491402E-05  4.03374449E-04
 -1.84569505E-04 -1.36557216E-05 -1.82004995E-05 -2.20769322E-01  5.41153539E-01
 -2.54603074E+00  3.87795455E+00  1.23331846E+00  3.93896086E-04  1.80754721E-03
  6.80212882E-01  7.57986701E-04  3.47832030E-03 -2.51129237E+00  4.05872912E-05
  1.86250757E-04 -1.27167521E+00 -3.42322433E-01  1.60876845E-04  7.38246719E-04
  3.39995348E-04 -1.55569529E-04  1.97718717E+00 -9.16230865E-04 -4.20448592E-03
 -3.59986852E-03  1.64716916E-03 -5.45647471E-01  2.33031853E-05  1.06935837E-04
  4.02785138E-04 -1.84299858E-04 -1.36843969E-05 -1.82387182E-05 -2.78649736E-01
  6.34055164E-01 -2.06384192E+00  3.22345242E+00 -1.54697432E+00  2.93050545E-04
  1.34477776E-03 -1.01986101E-02  1.15501807E-03  5.30025497E-03  7.32814561E-02
 -1.11779442E-03 -5.12943962E-03 -1.99624041E-01  8.52744495E-02  1.17344165E-04
  5.38479886E-04  5.77126178E-05 -2.64071989E-05 -2.46282138E-01 -6.91042113E-04
 -3.17111871E-03 -1.24343042E-03  5.68948622E-04 -4.06704687E-02 -5.79380702E-05
 -2.65871638E-04  1.81439364E-04 -8.30200666E-05 -2.01071486E-05 -2.67990339E-05
 -2.79415498E-01  6.34933093E-01 -2.07086965E+00  3.23520091E+00 -1.54670956E+00
 -2.95779703E-04 -1.35730158E-03  1.26405618E-02 -1.15312782E-03 -5.29158084E-03
 -8.16879145E-02  1.11832445E-03  5.13187186E-03  1.98534802E-01  8.43002685E-02
  1.30176364E-04  5.97365479E-04  1.01925589E-04 -4.66374495E-05 -2.40601539E-01
 -7.05063176E-04 -3.23545987E-03 -1.30048949E-03  5.95056780E-04  3.89600886E-02
  5.74331751E-05  2.63554728E-04 -1.76656737E-04  8.08317100E-05  2.00498723E-05
  2.67226955E-05  2.12875129E-01 -4.02668739E-01  7.09681696E-01 -5.76708600E-01
  2.88594543E-02  1.51961014E-04  6.97332917E-04 -6.85049976E-01  1.41240522E-03
  6.48137725E-03  1.76974129E+00 -1.09051298E-03 -5.00424800E-03 -1.06049294E+00
 -1.07777945E-01  5.39563993E-04  2.47600174E-03  1.29263657E-03 -5.91463569E-04
  6.13109688E-01 -2.10004044E-03 -9.63686209E-03 -7.64375105E-03  3.49750301E-03
  2.39421498E-01 -8.67561804E-05 -3.98114879E-04 -6.61477492E-04  3.02668088E-04
 -3.49330650E-05 -4.65591822E-05 -2.13271271E-01  4.02890836E-01 -7.11275709E-01
  5.79290024E-01 -3.01953584E-02  1.41859208E-04  6.50976815E-04 -6.85081839E-01
  1.42623554E-03  6.54484307E-03  1.76984575E+00 -1.09451113E-03 -5.02259509E-03
 -1.06052058E+00  1.07810140E-01 -5.23162427E-04 -2.40073670E-03 -1.25463940E-03
  5.74077443E-04 -6.13242731E-01  2.07815181E-03  9.53641749E-03  7.61773493E-03
 -3.48559898E-03  2.39446785E-01 -8.20405145E-05 -3.76475189E-04 -6.63326578E-04
  3.03514163E-04 -3.48417880E-05 -4.64375272E-05 -1.27811362E-12  2.01578022E-12
 -2.45198025E-12  1.97979392E-13  1.38154012E-13 -6.01109312E-01  1.30992211E-01
 -1.58184005E-12  1.28049920E+00 -2.79043126E-01  2.50476081E-12 -1.35335539E+00
  2.94919760E-01 -9.32288916E-13 -6.74493467E-13  7.93749929E-02 -1.72971963E-02
 -4.04710428E-07 -8.84489951E-07  2.39876957E-12 -1.77217821E-01  3.86188562E-02
 -8.65585849E-06 -1.89172746E-05  7.29343053E-13  2.25278616E-02 -4.90921423E-03
  4.32752542E-06  9.45775518E-06  3.30353650E-06 -2.47862290E-06 -2.19853647E-13
  3.95033195E-13 -2.99278129E-13 -6.02950875E-13  1.68645585E-13  6.01109313E-01
 -1.30992211E-01 -3.49953676E-12 -1.28049920E+00  2.79043125E-01  7.08833450E-12
  1.35335539E+00 -2.94919759E-01 -5.28875430E-12 -4.28505167E-13  7.93749925E-02
 -1.72971962E-02 -4.04725793E-07 -8.84523252E-07 -3.17246955E-13 -1.77217820E-01
  3.86188560E-02 -8.65580194E-06 -1.89171524E-05  3.54478528E-13 -2.25278619E-02
  4.90921430E-03 -4.32752079E-06 -9.45774493E-06 -3.30353983E-06  2.47862540E-06
  8.57479242E-03 -1.44285600E-02  1.98174527E-02 -3.74882367E-03 -1.03621709E-02
 -1.32713812E-01 -6.09009560E-01  4.52368552E-03  2.77816371E-01  1.27486976E+00
 -2.04411601E-03 -2.95089901E-01 -1.35413615E+00  3.83468355E-03  2.52064867E-03
  1.75955604E-02  8.07441539E-02 -3.93742420E-04  1.80162238E-04 -3.77160478E-03
 -3.87191242E-02 -1.77677940E-01  2.20079792E-03 -1.00700524E-03 -5.90574189E-04
  4.72088451E-03  2.16636365E-02 -2.58378957E-04  1.18224831E-04  3.71975006E-05
  4.95772475E-05  8.56268013E-03 -1.44489214E-02  1.97782914E-02 -3.69711413E-03
 -1.03449041E-02  1.32713887E-01  6.09009900E-01 -4.54017852E-03 -2.77816550E-01
 -1.27487058E+00  2.07677055E-03  2.95090084E-01  1.35413699E+00 -3.88528693E-03
  2.51989820E-03  1.75954090E-02  8.07434593E-02 -3.94425362E-04  1.80474728E-04
 -3.76942838E-03 -3.87191290E-02 -1.77677962E-01  2.20104596E-03 -1.00711873E-03
  5.92042070E-04 -4.72085563E-03 -2.16635040E-02  2.58420275E-04 -1.18243737E-04
 -3.72172618E-05 -4.96035855E-05 -4.29546515E-02  7.98702468E-02 -1.66683868E-01
 -1.10302278E-01 -1.18857596E-01  4.05003784E-04  1.85851925E-03  5.74568043E-01
  2.40826203E-04  1.10512582E-03 -1.30461522E+00  9.89401255E-04  4.54025704E-03
  1.17492146E+00 -2.31118802E-01 -5.50664653E-04 -2.52694148E-03  7.38854821E-05
 -3.38073145E-05  4.68264545E-01  1.24432171E-03  5.71005987E-03  1.46820750E-05
 -6.71798455E-06  8.28335655E-02  3.30155639E-04  1.51504909E-03 -3.69742008E-05
  1.69180521E-05 -8.47034345E-06 -1.12893691E-05 -4.28395089E-02  7.96552549E-02
 -1.66386538E-01 -1.10715154E-01 -1.18651365E-01 -4.01897667E-04 -1.84426561E-03
 -5.74525345E-01 -2.45654438E-04 -1.12728208E-03  1.30453832E+00 -9.85914867E-04
 -4.52425838E-03 -1.17484966E+00 -2.31106334E-01 -5.57481969E-04 -2.55822542E-03
  4.70802165E-05 -2.15421980E-05  4.68242332E-01  1.24820360E-03  5.72787345E-03
  3.57833192E-05 -1.63731480E-05 -8.28318731E-02 -3.29430049E-04 -1.51171943E-03
  3.57719856E-05 -1.63679620E-05  8.35289625E-06  1.11328341E-05 -4.03830784E-12
  5.70146451E-12 -4.47480446E-12 -1.76113781E-12  1.69507686E-12 -7.12342561E-01
  1.55231877E-01 -1.21260495E-12  1.25325656E+00 -2.73106479E-01  9.00449960E-13
 -7.38301326E-01  1.60888745E-01 -2.88374071E-12 -1.48227722E-13  4.02277604E-02