HF file generated by AutoMR of MOKIT
Stability RHF                                                         Gen
Number of atoms                            I                2
Info1-9                                    I   N=           9
           6           5           0           0           0         110
           7           1           2
Charge                                     I                0
Multiplicity                               I                1
Number of electrons                        I               12
Number of alpha electrons                  I                6
Number of beta electrons                   I                6
Number of basis functions                  I               62
Number of independent functions            I               62
Number of point charges in /Mol/           I                0
Number of translation vectors              I                0
Atomic numbers                             I   N=           2
           6           6
Nuclear charges                            R   N=           2
  6.00000000E+00  6.00000000E+00
Current cartesian coordinates              R   N=           6
  0.00000000E+00  0.00000000E+00  0.00000000E+00  0.00000000E+00  0.00000000E+00
  3.77945227E+00
Force Field                                I                0
Int Atom Types                             I   N=           2
           0           0
MM charges                                 R   N=           2
  0.00000000E+00  0.00000000E+00
Integer atomic weights                     I   N=           2
          12          12
Real atomic weights                        R   N=           2
  1.20000000E+01  1.20000000E+01
Atom fragment info                         I   N=           2
           1           2
Atom residue num                           I   N=           2
           0           0
Nuclear spins                              I   N=           2
           0           0
Nuclear ZEff                               R   N=           2
 -3.60000000E+00 -3.60000000E+00
Nuclear QMom                               R   N=           2
  0.00000000E+00  0.00000000E+00
Nuclear GFac                               R   N=           2
  0.00000000E+00  0.00000000E+00
MicOpt                                     I   N=           2
          -1          -1
Number of contracted shells                I               22
Number of primitive shells                 I               40
Pure/Cartesian d shells                    I                0
Pure/Cartesian f shells                    I                0
Highest angular momentum                   I                3
Largest degree of contraction              I                6
Shell types                                I   N=          22
           0           0           0           0           0           1
           1           1          -2          -2          -3           0
           0           0           0           0           1           1
           1          -2          -2          -3
Number of primitives per shell             I   N=          22
           6           2           1           1           1           4
           1           1           1           1           1           6
           2           1           1           1           4           1
           1           1           1           1
Shell to atom map                          I   N=          22
           1           1           1           1           1           1
           1           1           1           1           1           2
           2           2           2           2           2           2
           2           2           2           2
Primitive exponents                        R   N=          40
  1.35753497E+04  2.03523337E+03  4.63225624E+02  1.31200196E+02  4.28530159E+01
  1.55841858E+01  6.20671385E+00  2.57648965E+00  5.76963394E-01  2.29728314E-01
  9.51644400E-02  3.46972322E+01  7.95826228E+00  2.37808269E+00  8.14332082E-01
  2.88875473E-01  1.00568237E-01  1.09700000E+00  3.18000000E-01  7.61000000E-01
  1.35753497E+04  2.03523337E+03  4.63225624E+02  1.31200196E+02  4.28530159E+01
  1.55841858E+01  6.20671385E+00  2.57648965E+00  5.76963394E-01  2.29728314E-01
  9.51644400E-02  3.46972322E+01  7.95826228E+00  2.37808269E+00  8.14332082E-01
  2.88875473E-01  1.00568237E-01  1.09700000E+00  3.18000000E-01  7.61000000E-01
Contraction coefficients                   R   N=          40
  6.06455036E-04  4.69790889E-03  2.43324776E-02  9.73999683E-02  3.01955843E-01
  6.62336091E-01  6.55953085E-01  3.75856333E-01  1.00000000E+00  1.00000000E+00
  1.00000000E+00  1.13272200E-02  7.61696592E-02  3.01922522E-01  7.27850273E-01
  1.00000000E+00  1.00000000E+00  1.00000000E+00  1.00000000E+00  1.00000000E+00
  6.06455036E-04  4.69790889E-03  2.43324776E-02  9.73999683E-02  3.01955843E-01
  6.62336091E-01  6.55953085E-01  3.75856333E-01  1.00000000E+00  1.00000000E+00
  1.00000000E+00  1.13272200E-02  7.61696592E-02  3.01922522E-01  7.27850273E-01
  1.00000000E+00  1.00000000E+00  1.00000000E+00  1.00000000E+00  1.00000000E+00
Coordinates of each shell                  R   N=          66
  0.00000000E+00  0.00000000E+00  0.00000000E+00  0.00000000E+00  0.00000000E+00
  0.00000000E+00  0.00000000E+00  0.00000000E+00  0.00000000E+00  0.00000000E+00
  0.00000000E+00  0.00000000E+00  0.00000000E+00  0.00000000E+00  0.00000000E+00
  0.00000000E+00  0.00000000E+00  0.00000000E+00  0.00000000E+00  0.00000000E+00
  0.00000000E+00  0.00000000E+00  0.00000000E+00  0.00000000E+00  0.00000000E+00
  0.00000000E+00  0.00000000E+00  0.00000000E+00  0.00000000E+00  0.00000000E+00
  0.00000000E+00  0.00000000E+00  0.00000000E+00  0.00000000E+00  0.00000000E+00
  3.77945227E+00  0.00000000E+00  0.00000000E+00  3.77945227E+00  0.00000000E+00
  0.00000000E+00  3.77945227E+00  0.00000000E+00  0.00000000E+00  3.77945227E+00
  0.00000000E+00  0.00000000E+00  3.77945227E+00  0.00000000E+00  0.00000000E+00
  3.77945227E+00  0.00000000E+00  0.00000000E+00  3.77945227E+00  0.00000000E+00
  0.00000000E+00  3.77945227E+00  0.00000000E+00  0.00000000E+00  3.77945227E+00
  0.00000000E+00  0.00000000E+00  3.77945227E+00  0.00000000E+00  0.00000000E+00
  3.77945227E+00
Constraint Structure                       R   N=           6
  0.00000000E+00  0.00000000E+00  0.00000000E+00  0.00000000E+00  0.00000000E+00
  3.77945227E+00
Num ILSW                                   I              100
ILSW                                       I   N=         100
           0           0           0           0           2           1
           0           0           0           0           0          -1
           0           0           0           0           0           0
           0           0           0           0           0           0
           1           1           0           0           0           0
           0           0      100000           0          -1           0
           0           0           0           0           0           0
           0           0           0           1           0           0
           0           0           1           0           0           0
           0           0           4          40           0           0
           0           0           0           0           0           0
           0           0           0           0           0           0
           0           0           0           0           0           0
           0           0           0           0           0           0
           0           0           0           0           0           0
           0           0           0           0           0           0
           0           0           0           0
Num RLSW                                   I               40
RLSW                                       R   N=          40
  1.00000000E+00  1.00000000E+00  1.00000000E+00  1.00000000E+00  1.00000000E+00
  0.00000000E+00  0.00000000E+00  1.00000000E+00  0.00000000E+00  0.00000000E+00
  0.00000000E+00  0.00000000E+00  1.00000000E+00  0.00000000E+00  0.00000000E+00
  0.00000000E+00  0.00000000E+00  1.00000000E+00  0.00000000E+00  0.00000000E+00
  0.00000000E+00  0.00000000E+00  1.00000000E+00  0.00000000E+00  0.00000000E+00
  0.00000000E+00  0.00000000E+00  1.00000000E+00  0.00000000E+00  0.00000000E+00
  0.00000000E+00  0.00000000E+00  1.00000000E+00  0.00000000E+00  0.00000000E+00
  0.00000000E+00  0.00000000E+00  0.00000000E+00  1.00000000E+00  1.00000000E+00
ECP-MxAtEC                                 I           250000
ECP-MaxLECP                                I               10
ECP-MaxAtL                                 I          2250000
ECP-MxTECP                                 I         11250000
ECP-LenNCZ                                 I                0
ECP-KFirst                                 I   N=          20
           0           0           0           0           0           0
           0           0           0           0           0           0
           0           0           0           0           0           0
           0           0
ECP-KLast                                  I   N=          20
           0           0           0           0           0           0
           0           0           0           0           0           0
           0           0           0           0           0           0
           0           0
ECP-LMax                                   I   N=           2
           0           0
ECP-LPSkip                                 I   N=           2
           1           1
ECP-RNFroz                                 R   N=           2
  0.00000000E+00  0.00000000E+00
ECP-NLP                                    I                0
ECP-CLP1                                   R      0.000000000000000E+00
ECP-CLP2                                   R      0.000000000000000E+00
ECP-ZLP                                    R      0.000000000000000E+00
MxBond                                     I                1
NBond                                      I   N=           2
           0           0
IBond                                      I   N=           2
           0           0
RBond                                      R   N=           2
  0.00000000E+00  0.00000000E+00
Virial Ratio                               R      2.002767418515293E+00
SCF Energy                                 R     -7.539833080752248E+01
Total Energy                               R     -7.539833080752248E+01
S**2                                       R      1.995806237313542E+00
S**2 after annihilation                    R      5.202194813231433E+00
RMS Density                                R      5.365533649607990E-09
External E-field                           R   N=          35
  0.00000000E+00  0.00000000E+00  0.00000000E+00  0.00000000E+00  0.00000000E+00
  0.00000000E+00  0.00000000E+00  0.00000000E+00  0.00000000E+00  0.00000000E+00
  0.00000000E+00  0.00000000E+00  0.00000000E+00  0.00000000E+00  0.00000000E+00
  0.00000000E+00  0.00000000E+00  0.00000000E+00  0.00000000E+00  0.00000000E+00
  0.00000000E+00  0.00000000E+00  0.00000000E+00  0.00000000E+00  0.00000000E+00
  0.00000000E+00  0.00000000E+00  0.00000000E+00  0.00000000E+00  0.00000000E+00
  0.00000000E+00  0.00000000E+00  0.00000000E+00  0.00000000E+00  0.00000000E+00
IOpCl                                      I                0
IROHF                                      I                0
Alpha Orbital Energies                     R   N=          62
  2.00000000E+00  2.00000000E+00  1.93309886E+00  1.95550308E+00  1.86319214E+00
  1.70566860E+00  2.99451123E-01  1.15979985E-01  5.85995550E-02  6.85066570E-02
  0.00000000E+00  0.00000000E+00  0.00000000E+00  0.00000000E+00  0.00000000E+00
  0.00000000E+00  0.00000000E+00  0.00000000E+00  0.00000000E+00  0.00000000E+00
  0.00000000E+00  0.00000000E+00  0.00000000E+00  0.00000000E+00  0.00000000E+00
  0.00000000E+00  0.00000000E+00  0.00000000E+00  0.00000000E+00  0.00000000E+00
  0.00000000E+00  0.00000000E+00  0.00000000E+00  0.00000000E+00  0.00000000E+00
  0.00000000E+00  0.00000000E+00  0.00000000E+00  0.00000000E+00  0.00000000E+00
  0.00000000E+00  0.00000000E+00  0.00000000E+00  0.00000000E+00  0.00000000E+00
  0.00000000E+00  0.00000000E+00  0.00000000E+00  0.00000000E+00  0.00000000E+00
  0.00000000E+00  0.00000000E+00  0.00000000E+00  0.00000000E+00  0.00000000E+00
  0.00000000E+00  0.00000000E+00  0.00000000E+00  0.00000000E+00  0.00000000E+00
  0.00000000E+00  0.00000000E+00
Alpha MO coefficients                      R   N=        3844
 -3.31835542E-01 -4.35836259E-01 -8.24551038E-03  1.05171832E-02 -5.87411022E-04
 -2.18667361E-08 -9.93143107E-08 -1.86987489E-03  8.46591409E-09  3.89984135E-08
  1.26575106E-03 -1.12398778E-08 -5.11550677E-08 -8.81207388E-04 -1.96569101E-04
 -5.08768088E-09 -2.33552162E-08 -1.43134931E-04  6.54979621E-05  5.73836925E-04
 -5.63229677E-09 -2.58807076E-08 -1.50979162E-04  6.90872674E-05  1.61183072E-04
  4.58911401E-10  2.07821446E-09 -1.44481948E-06  6.61085769E-07  4.94315743E-10
  6.48698136E-10  3.31836299E-01  4.35837254E-01  8.24552656E-03 -1.05172034E-02
  5.87410237E-04  2.19564869E-08  9.97072005E-08 -1.86987749E-03 -8.44202034E-09
 -3.88951426E-08  1.26575198E-03  1.14208743E-08  5.19773007E-08 -8.81208816E-04
  1.96569407E-04 -5.13168283E-09 -2.35568878E-08  1.43135658E-04 -6.54972498E-05
 -5.73836812E-04 -5.64790046E-09 -2.59512637E-08  1.50979725E-04 -6.90867886E-05
  1.61183195E-04 -4.63784329E-10 -2.10053462E-09 -1.44479447E-06  6.61179539E-07
 -5.07232762E-10 -6.65610852E-10  3.31925185E-01  4.36108897E-01  7.07994392E-03
 -8.82817825E-03 -3.47330515E-04  3.03203764E-08  1.38296975E-07  1.13588768E-03
  1.98157329E-09  9.08782772E-09 -4.09539708E-04  1.41028766E-08  6.44598333E-08
  6.25556992E-04  1.33545383E-04  5.25283314E-09  2.41228612E-08  1.44964674E-04
 -6.63352103E-05  4.94239740E-05  5.45936501E-09  2.50467675E-08  1.24486170E-04
 -5.69643120E-05 -5.39451200E-05  7.19839825E-10  3.30371180E-09  6.47260044E-06
 -2.96178975E-06 -6.02248826E-10 -7.92410525E-10  3.31924428E-01  4.36107903E-01
  7.07992513E-03 -8.82815423E-03 -3.47331844E-04  3.04663661E-08  1.38949278E-07
 -1.13588341E-03  2.05489373E-09  9.42011006E-09  4.09536817E-04  1.43622699E-08
  6.56413115E-08 -6.25554979E-04  1.33544934E-04 -5.28972163E-09 -2.42912722E-08
  1.44964723E-04 -6.63342442E-05  4.94252856E-05 -5.46957330E-09 -2.50938527E-08
  1.24486129E-04 -5.69634904E-05  5.39447515E-05  7.12897494E-10  3.27222798E-09
 -6.47258024E-06  2.96182527E-06 -6.14561068E-10 -8.08770209E-10 -7.36175938E-02
 -1.70093329E-01  3.01292377E-01  3.92687149E-01  1.39896628E-01 -3.88161874E-07
 -1.73601079E-06 -6.49436485E-02 -4.87669147E-07 -2.19003333E-06 -6.05242258E-02
 -4.36630540E-07 -1.98209347E-06 -2.23831981E-02 -4.36927562E-03 -1.09627937E-07
 -5.03301034E-07 -2.32791289E-03  1.06524622E-03 -8.84103302E-03 -2.40228438E-07
 -1.10320167E-06 -4.71749382E-03  2.15869902E-03  4.75695330E-04  9.52410280E-08
  4.35423309E-07  1.30397026E-03 -5.96701427E-04  1.25382166E-07  1.64722559E-07
  7.36175949E-02  1.70093332E-01 -3.01292382E-01 -3.92687155E-01 -1.39896629E-01
  3.88762570E-07  1.73898165E-06 -6.49436471E-02  5.00263635E-07  2.24800086E-06
 -6.05242244E-02  4.50853973E-07  2.04753324E-06 -2.23831978E-02  4.36927555E-03
 -1.12290154E-07 -5.15542088E-07  2.32792143E-03 -1.06522762E-03  8.84103284E-03
 -2.38610674E-07 -1.09585230E-06  4.71750160E-03 -2.15868203E-03  4.75695377E-04
 -9.65998084E-08 -4.41645278E-07  1.30398141E-03 -5.96677076E-04 -1.29328741E-07
 -1.69943374E-07 -6.84837459E-02 -1.58000378E-01  2.71936229E-01  3.51425086E-01
  8.74276757E-02 -4.08357147E-08 -2.33028477E-07  4.40271821E-02 -1.51114995E-07
 -7.37686325E-07  4.55521045E-02 -2.03300389E-07 -9.63798219E-07  9.01923634E-05
  4.02525744E-03 -1.09570212E-08 -5.24634702E-08 -1.15879186E-03  5.30257729E-04
  9.92903594E-03  9.09934171E-08  4.10111619E-07  4.46007224E-04 -2.04088748E-04
  3.26654388E-03  5.75699416E-08  2.62858548E-07  9.07330068E-04 -4.15195806E-04
  8.38712828E-08  1.10133554E-07 -6.84837447E-02 -1.58000375E-01  2.71936224E-01
  3.51425080E-01  8.74276735E-02 -4.16134569E-08 -2.36037460E-07 -4.40271831E-02
 -1.60002320E-07 -7.77893404E-07 -4.55521054E-02 -2.15404113E-07 -1.01904553E-06
 -9.01927594E-05  4.02525750E-03  1.15647153E-08  5.52725488E-08 -1.15879449E-03
  5.30251902E-04  9.92903604E-03 -9.44402998E-08 -4.25890141E-07  4.46006742E-04
 -2.04089967E-04 -3.26654387E-03  5.86456043E-08  2.67784649E-07 -9.07336546E-04
  4.15181594E-04  8.67541178E-08  1.13947818E-07 -1.46362282E-02 -3.47729595E-02
  7.05715960E-02  7.95665083E-02  1.05333928E-01 -4.95236066E-06 -2.28109618E-05
 -3.06648350E-01 -4.91151476E-06 -2.26169644E-05 -3.00944333E-01 -3.13178708E-06
 -1.44307867E-05 -1.45669327E-01 -1.00684487E-02 -2.76385945E-07 -1.26800620E-06
 -2.74735205E-03  1.25718634E-03 -2.53726032E-02 -7.14102553E-07 -3.27992693E-06
 -5.75186649E-03  2.63205731E-03 -2.31119321E-04  1.48656170E-07  6.80616452E-07
  2.80945830E-03 -1.28559988E-03  1.63468204E-07  2.16252298E-07 -1.46362284E-02
 -3.47729599E-02  7.05715969E-02  7.95665094E-02  1.05333928E-01 -4.97506225E-06
 -2.29137030E-05  3.06648350E-01 -4.94373419E-06 -2.27633919E-05  3.00944333E-01
 -3.16221883E-06 -1.45696881E-05  1.45669327E-01 -1.00684487E-02  2.80610104E-07
  1.28736477E-06 -2.74736664E-03  1.25715447E-03 -2.53726032E-02  7.19449655E-07
  3.30439009E-06 -5.75190259E-03  2.63197846E-03  2.31119336E-04  1.50274317E-07
  6.88003298E-07 -2.80946849E-03  1.28557761E-03  1.66215806E-07  2.19882443E-07
  3.38710777E-09  7.99715904E-09 -1.51194720E-08 -2.15806060E-08 -2.64731556E-09
  2.92746538E-01 -6.37986203E-02  1.73056472E-08  2.87727344E-01 -6.27047935E-02
  1.76301300E-08  1.78334149E-01 -3.88645801E-02  7.39963411E-09  9.08719228E-10
  6.04108467E-03 -1.31653936E-03  1.80514976E-07  3.87444886E-07  2.22140907E-09
  2.43402023E-02 -5.30447443E-03  3.38977671E-07  7.23145139E-07 -5.71743880E-10
  1.53637547E-03 -3.34816645E-04 -1.38583766E-07 -3.00631179E-07 -1.37647706E-03
  1.03283871E-03  3.39543371E-09  8.02039255E-09 -1.51707674E-08 -2.16501325E-08
 -2.64316880E-09  2.92746711E-01 -6.37978258E-02 -1.73245608E-08  2.87727520E-01
 -6.27039890E-02 -1.76398946E-08  1.78334252E-01 -3.88641051E-02 -7.39168263E-09
  9.10040919E-10 -6.04108751E-03  1.31652635E-03  1.86694674E-07  4.00832095E-07
  2.22494917E-09 -2.43402099E-02  5.30443953E-03  3.56036388E-07  7.60122368E-07
  5.76366119E-10  1.53637322E-03 -3.34826987E-04  1.39690451E-07  3.03008293E-07
 -1.37647730E-03  1.03283839E-03  1.18464960E-09  2.65729169E-09 -4.54867130E-09
 -4.68932857E-09  4.38020516E-09 -3.70718073E-01  8.07912888E-02  1.74889956E-08
 -3.59684462E-01  7.83867438E-02  1.58783889E-08 -1.29988006E-01  2.83285422E-02
  6.98349251E-09  1.75538226E-10 -3.76508687E-03  8.20557337E-04 -3.79296990E-07
 -8.17060934E-07  4.16137808E-10 -1.09615165E-02  2.38891612E-03 -7.34165582E-07
 -1.57692669E-06  1.65582881E-10  1.75838820E-03 -3.83211545E-04 -6.00136044E-09
 -1.56657293E-08 -2.33820121E-03  1.75448621E-03 -1.24534063E-09 -2.80093375E-09
  4.89181383E-09  4.97841921E-09 -4.41307380E-09  3.70718390E-01 -8.07898364E-02
  1.78090540E-08  3.59684782E-01 -7.83852759E-02  1.62596192E-08  1.29988121E-01
 -2.83280116E-02  7.12175523E-09 -2.06369685E-10 -3.76510049E-03  8.20494873E-04
  4.00123308E-07  8.62318497E-07 -5.09600884E-10 -1.09615476E-02  2.38877308E-03
  7.84793376E-07  1.68695297E-06  1.73581526E-10 -1.75839084E-03  3.83199453E-04
 -3.23927646E-09 -9.65711423E-09  2.33821928E-03 -1.75446215E-03 -2.87702324E-02
 -6.69962630E-02  1.17954427E-01  2.20144468E-01  9.10586577E-02  8.69880674E-06
  3.98468144E-05  4.41118410E-01  8.30026587E-06  3.80175925E-05  4.38760842E-01
  1.75760898E-06  8.06671454E-06  1.20542025E-01  5.61057916E-03  5.62057953E-07
  2.56762031E-06  6.76068334E-03 -3.09371554E-03  2.46659142E-02  9.82987345E-07
  4.48543260E-06  1.28284550E-02 -5.87038789E-03  3.45775926E-03  2.17365168E-07
  9.98606648E-07  4.67662811E-03 -2.14000452E-03  2.26670488E-07  3.01690413E-07
  2.87702324E-02  6.69962629E-02 -1.17954427E-01 -2.20144468E-01 -9.10586577E-02
 -8.61025927E-06 -3.94402487E-05  4.41118410E-01 -8.20116698E-06 -3.75630490E-05
  4.38760843E-01 -1.74439287E-06 -8.00701245E-06  1.20542025E-01 -5.61057907E-03
  5.98960402E-07  2.73670498E-06 -6.76074331E-03  3.09358457E-03 -2.46659141E-02
  1.05543746E-06  4.81766934E-06 -1.28285960E-02  5.87007991E-03  3.45775928E-03
 -2.12688565E-07 -9.77225850E-07  4.67663988E-03 -2.13997883E-03 -2.26711699E-07
 -3.01742580E-07 -1.12280023E-06 -2.41584327E-06 -2.09557566E-06  1.47439394E-05
  1.96495525E-05 -7.66724947E-02 -3.51819469E-01  4.09986350E-05 -8.44277664E-02
 -3.87405064E-01  4.39286674E-05 -7.50663793E-03 -3.44456416E-02  7.56382019E-06
 -1.00782634E-05  1.29787086E-02  5.95530404E-02 -4.29760023E-06  2.01354802E-06
 -1.31368424E-05  2.20298438E-02  1.01084067E-01 -7.29272418E-06  3.42362062E-06
  3.55076444E-06 -2.57701672E-03 -1.18246266E-02  1.72299003E-06 -8.04804576E-07
 -1.13163506E-03 -1.50811483E-03  9.51466285E-07  2.00382484E-06  3.82115276E-06
 -1.47333196E-05 -2.11796621E-05  7.66714683E-02  3.51819679E-01  4.16518436E-05
  8.44265316E-02  3.87405318E-01  4.41588261E-05  7.50681924E-03  3.44456009E-02
  6.81735079E-06  1.02444524E-05  1.29780871E-02  5.95531734E-02  4.48158595E-06
 -2.09857876E-06  1.32652603E-05  2.20286753E-02  1.01084318E-01  7.57427462E-06
 -3.55402276E-06  3.60777562E-06  2.57686751E-03  1.18246584E-02  1.77040939E-06
 -8.26806486E-07  1.13160645E-03  1.50813614E-03 -3.60806826E-06 -8.50325577E-06
  2.87070548E-05  8.10595965E-06 -1.96829043E-05  7.40809030E-02  3.39926231E-01
 -3.00708852E-05  8.29033049E-02  3.80409051E-01 -3.15380910E-05  7.07169830E-03
  3.24490437E-02  5.18523155E-06  8.65674407E-06 -1.12443664E-02 -5.15950641E-02
  5.52168213E-06 -2.57348208E-06  1.39199016E-05 -1.89955499E-02 -8.71611409E-02
  9.51007254E-06 -4.44123031E-06 -3.34818561E-06  3.37384545E-03  1.54809446E-02
 -2.04080121E-06  9.51161851E-07  1.24484619E-03  1.65901470E-03 -3.77287251E-06
 -8.90238530E-06  3.02529069E-05  8.26520726E-06 -2.08353753E-05  7.40793086E-02
  3.39926592E-01  2.98861651E-05  8.29017338E-02  3.80409408E-01  3.10861007E-05
  7.07153990E-03  3.24490809E-02 -5.72618927E-06  8.85516080E-06  1.12438635E-02
  5.15951757E-02  5.68867758E-06 -2.65064441E-06  1.40812740E-05  1.89945216E-02
  8.71613684E-02  9.77775258E-06 -4.56510047E-06  3.39406777E-06  3.37368139E-03
  1.54809807E-02  2.06728694E-06 -9.63554821E-07  1.24483868E-03  1.65902038E-03
 -3.49503731E-02 -6.55262691E-02 -1.12530547E-01  1.44286537E+00 -1.36561890E+00
  4.09511337E-07  1.86589370E-06 -3.73475636E-02  9.84678184E-06  4.51563238E-05
 -5.55851298E-02 -2.06382884E-05 -9.46801546E-05  7.14074250E-02  3.84864958E-03
 -2.45506148E-07 -1.12634238E-06 -2.50244033E-03  1.14510323E-03  1.10678439E-02
 -8.76079726E-07 -4.02206558E-06  2.68695895E-03 -1.22953395E-03 -3.19743724E-03
  5.94600448E-08  2.72402550E-07  2.28541682E-04 -1.04580420E-04  3.19685993E-08
  4.26273308E-08 -3.49503733E-02 -6.55262694E-02 -1.12530547E-01  1.44286538E+00
 -1.36561890E+00  3.24381248E-07  1.47509621E-06  3.73475640E-02  9.89636426E-06
  4.53834561E-05  5.55851313E-02 -2.12673992E-05 -9.75663983E-05 -7.14074300E-02
  3.84864952E-03  2.42620966E-07  1.11311377E-06 -2.50244476E-03  1.14509357E-03
  1.10678443E-02  8.98913029E-07  4.12702007E-06  2.68696068E-03 -1.22953024E-03
  3.19743720E-03  6.04829253E-08  2.77101813E-07 -2.28542824E-04  1.04577922E-04
  3.58280190E-08  4.77709529E-08 -2.51953599E-02 -4.60632178E-02 -9.57586672E-02
  9.55128961E-01 -3.15306123E-01 -4.80184396E-07 -2.20427065E-06 -9.76368982E-02
  1.21272436E-06  5.55588175E-06 -3.12389814E-01 -7.36200704E-06 -3.37556693E-05
  1.09250555E+00 -1.33139496E-02 -6.27826280E-08 -2.87075999E-07 -1.53073129E-03
  7.00455526E-04  8.23194267E-02 -7.38267240E-07 -3.38494546E-06  3.53397156E-04
 -1.61676618E-04  8.06668578E-03  1.77771238E-08  8.14898701E-08  4.03736425E-04
 -1.84747448E-04  1.95942521E-08  2.60697487E-08  2.51953595E-02  4.60632172E-02
  9.57586657E-02 -9.55128946E-01  3.15306110E-01 -1.14021039E-07 -5.22649150E-07
 -9.76368980E-02 -4.55257049E-06 -2.08823696E-05 -3.12389815E-01  1.27321387E-05
  5.83989371E-05  1.09250555E+00  1.33139497E-02 -9.24603092E-08 -4.23240863E-07
  1.53073482E-03 -7.00447735E-04 -8.23194267E-02 -8.30244581E-07 -3.80713776E-06
 -3.53370567E-04  1.61734989E-04  8.06668583E-03 -3.02895275E-08 -1.38905830E-07
  4.03737011E-04 -1.84746163E-04 -8.23801764E-09 -1.09338664E-08 -4.13872445E-06
 -7.67600436E-06 -1.55234588E-05  1.78988303E-04 -1.64908219E-04 -2.18739596E-02
 -1.00371894E-01 -5.50852033E-06 -1.12458471E-01 -5.16030329E-01  7.41045047E-06
  1.73438478E-01  7.95843036E-01 -3.67849272E-05  5.95644599E-07  8.41335921E-04
  3.86054884E-03 -3.12867820E-07  1.44151320E-07 -4.03041118E-06  1.65244743E-03
  7.58185670E-03 -3.64359219E-06  1.70283441E-06 -5.83374379E-07 -3.93523329E-04
 -1.80571323E-03 -1.15763442E-08  4.81619937E-09  4.81198962E-04  6.41297761E-04
 -4.90479186E-06 -9.06767579E-06 -1.85743011E-05  2.07752591E-04 -1.71079570E-04
 -2.18740935E-02 -1.00371865E-01  8.55040903E-06 -1.12458340E-01 -5.16030356E-01
  2.44257351E-06  1.73437448E-01  7.95843258E-01  8.10755716E-07  1.52651856E-07
 -8.41322177E-04 -3.86055182E-03 -3.61759029E-07  1.66544946E-07 -1.39720329E-06
 -1.65218900E-03 -7.58191275E-03 -3.72576613E-06  1.74087048E-06  3.22317774E-07
 -3.93514620E-04 -1.80571512E-03 -2.47757920E-09  1.63043048E-09  4.81196788E-04
  6.41299397E-04 -1.78068171E-10 -3.12733726E-10 -1.97679147E-10  3.38267095E-09
 -1.03481989E-08 -1.59512891E-01  3.47623979E-02 -1.77661116E-09 -5.87970773E-01
  1.28134584E-01 -1.22262233E-08  7.79819609E-01 -1.69941050E-01  2.23607043E-08
 -1.61706636E-10  7.67278615E-04 -1.67240810E-04 -1.12027435E-07 -2.43764260E-07
 -5.94170420E-10 -4.96829262E-02  1.08276004E-02 -4.30584265E-08 -9.06436645E-08
  1.75307335E-10 -2.23114245E-03  4.86245347E-04  1.04381895E-07  2.28093242E-07
  1.41123494E-03 -1.05892284E-03 -1.67433373E-10 -2.98139060E-10 -6.90810319E-11
  2.61998835E-09 -9.67391937E-09 -1.59512801E-01  3.47628172E-02  1.58956241E-09
 -5.87970034E-01  1.28137998E-01  1.18515247E-08  7.79817580E-01 -1.69950420E-01
 -2.18576453E-08 -1.49417392E-10 -7.67290135E-04  1.67187500E-04 -1.14140581E-07
 -2.48364657E-07 -6.28910733E-10  4.96830128E-02 -1.08272020E-02 -4.51236803E-08
 -9.51785076E-08 -1.65428644E-10 -2.23114777E-03  4.86220813E-04 -1.04782979E-07
 -2.28969269E-07  1.41123863E-03 -1.05891793E-03 -9.78766146E-08 -2.06944658E-07
  1.96994836E-06 -3.73193671E-05  1.94858250E-04 -2.12811883E-02 -9.76543131E-02
 -6.31258161E-06 -1.15202155E-01 -5.28630457E-01 -2.57694557E-05  2.84298384E-01
  1.30455414E+00  1.68831552E-04 -2.20238533E-06 -1.85997383E-03 -8.53478517E-03
  1.46110500E-07 -6.57744061E-08  5.04318024E-06  1.01721213E-02  4.66742018E-02
 -3.33159389E-06  1.54849030E-06  8.43723754E-07  8.97226179E-04  4.11701197E-03
 -1.04610937E-08  3.85762724E-09  4.67002600E-04  6.22389184E-04  1.61194370E-07
  2.49020544E-07  1.32011399E-07  2.25685292E-05 -1.91921663E-04  2.12823350E-02
  9.76540635E-02 -2.92709283E-06  1.15206347E-01  5.28629543E-01 -6.14625516E-06
 -2.84303902E-01 -1.30455294E+00  1.34063891E-04  1.61114963E-06 -1.85999401E-03
 -8.53478078E-03 -1.08165992E-07  4.84032421E-08 -6.03512655E-06  1.01713184E-02
  4.66743764E-02  3.34365184E-06 -1.55455208E-06  5.86996228E-07 -8.97213950E-04
 -4.11701465E-03 -3.66683099E-08  1.58456388E-08 -4.67011090E-04 -6.22382819E-04
 -2.44133899E-04 -2.41604916E-03  4.98918496E-02 -3.39133546E-01 -3.63574670E-03
 -4.16808583E-07 -1.92962902E-06 -1.03718691E-01 -8.51650696E-07 -3.96703029E-06
 -5.94302111E-01 -1.01377005E-06 -4.57907340E-06  1.04790461E+00 -1.76350288E-02
 -2.52825831E-08 -1.14518959E-07  9.61435085E-04 -4.39946130E-04 -3.04377390E-02
 -6.32514887E-07 -2.90937206E-06 -2.80860543E-03  1.28520132E-03  7.55897059E-03
  1.37288156E-08  6.33769755E-08  8.28151921E-04 -3.78957985E-04  2.19153807E-08
  2.92029384E-08 -2.44133810E-04 -2.41604899E-03  4.98918501E-02 -3.39133552E-01
 -3.63573243E-03 -1.17551985E-06 -5.41135668E-06  1.03718691E-01 -4.76246116E-06
 -2.19140403E-05  5.94302111E-01  8.44520597E-06  3.88289735E-05 -1.04790462E+00
 -1.76350288E-02  8.89561542E-08  4.06701807E-07  9.61435741E-04 -4.39944726E-04
 -3.04377389E-02  2.97151235E-07  1.37049930E-06 -2.80860946E-03  1.28519284E-03
 -7.55897060E-03  4.48373862E-08  2.06138075E-07 -8.28153474E-04  3.78954585E-04
  3.95531934E-08  5.27088443E-08 -7.54526464E-11 -3.95691763E-11 -3.01482208E-09
  2.88086634E-08 -1.09969921E-07  1.12925457E-01 -2.46098586E-02 -1.15682904E-09
  5.33832468E-01 -1.16338190E-01  1.55935709E-09 -1.28835363E+00  2.80770987E-01
 -6.62137553E-08  5.61524755E-10  1.06333963E-02 -2.31733842E-03  1.27938522E-07
  2.78655420E-07 -3.08226872E-09 -2.18573782E-02  4.76328873E-03 -8.12184908E-08
 -1.83957395E-07 -2.38640845E-10 -4.51225884E-03  9.83356288E-04 -5.18840825E-08
 -1.13399806E-07 -7.17913042E-04  5.38688356E-04  6.77169802E-11  2.45738974E-11
  3.01931016E-09 -2.87551902E-08  1.09725737E-07 -1.12925469E-01  2.46097974E-02
 -1.05784352E-09 -5.33832532E-01  1.16337872E-01  1.98772901E-09  1.28835375E+00
 -2.80770439E-01 -6.69339564E-08 -5.67654762E-10  1.06333980E-02 -2.31733063E-03
 -1.29936579E-07 -2.83005919E-07  3.08171148E-09 -2.18573427E-02  4.76345371E-03
  6.93703176E-08  1.58204522E-07 -2.42220074E-10  4.51225905E-03 -9.83355449E-04
 -5.17849860E-08 -1.13182630E-07  7.17915782E-04 -5.38684673E-04 -2.00325702E-02
 -3.61674834E-02 -1.21278071E-01  1.65776561E+00 -5.37198522E+00 -1.75058331E-06
 -8.02023052E-06  4.42079538E-02 -6.23979472E-06 -2.85733890E-05  1.54634252E-01
  1.14164703E-05  5.22554633E-05 -3.00906664E+00  3.06274920E-02 -7.50391202E-08