[Molden Format]
[N_ATOMS]
                    2
[ATOMS] (AU)
C1          1      6           0.00000000      0.00000000      0.00000000
C2          2      6           0.00000000      0.00000000      3.77945227
[5D]
[7F]
[CHARGE] (MULLIKEN)
  -1.0106981918056590E-009
   1.0105134506943614E-009
[GTO] (AU)
   1
   s   6
  0.135753497E+05  0.606455036E-03
  0.203523337E+04  0.469790889E-02
  0.463225624E+03  0.243324776E-01
  0.131200196E+03  0.973999683E-01
  0.428530159E+02  0.301955843E+00
  0.155841858E+02  0.662336091E+00
   s   2
  0.620671385E+01  0.655953085E+00
  0.257648965E+01  0.375856333E+00
   s   1
  0.576963394E+00  0.100000000E+01
   s   1
  0.229728314E+00  0.100000000E+01
   s   1
  0.951644400E-01  0.100000000E+01
   p   4
  0.346972322E+02  0.113272200E-01
  0.795826228E+01  0.761696592E-01
  0.237808269E+01  0.301922522E+00
  0.814332082E+00  0.727850273E+00
   p   1
  0.288875473E+00  0.100000000E+01
   p   1
  0.100568237E+00  0.100000000E+01
   d   1
  0.109700000E+01  0.100000000E+01
   d   1
  0.318000000E+00  0.100000000E+01
   f   1
  0.761000000E+00  0.100000000E+01
 
   2
   s   6
  0.135753497E+05  0.606455036E-03
  0.203523337E+04  0.469790889E-02
  0.463225624E+03  0.243324776E-01
  0.131200196E+03  0.973999683E-01
  0.428530159E+02  0.301955843E+00
  0.155841858E+02  0.662336091E+00
   s   2
  0.620671385E+01  0.655953085E+00
  0.257648965E+01  0.375856333E+00
   s   1
  0.576963394E+00  0.100000000E+01
   s   1
  0.229728314E+00  0.100000000E+01
   s   1
  0.951644400E-01  0.100000000E+01
   p   4
  0.346972322E+02  0.113272200E-01
  0.795826228E+01  0.761696592E-01
  0.237808269E+01  0.301922522E+00
  0.814332082E+00  0.727850273E+00
   p   1
  0.288875473E+00  0.100000000E+01
   p   1
  0.100568237E+00  0.100000000E+01
   d   1
  0.109700000E+01  0.100000000E+01
   d   1
  0.318000000E+00  0.100000000E+01
   f   1
  0.761000000E+00  0.100000000E+01
 
[MO]
Sym=     1a  
Ene=   -11.3480
Spin= Alpha
Occup=    2.00000
   1        -0.33183554
   2        -0.43583626
   3        -0.00824551
   4         0.01051718
   5        -0.00058741
   6        -0.00000002
   7        -0.00000010
   8        -0.00186987
   9         0.00000001
  10         0.00000004
  11         0.00126575
  12        -0.00000001
  13        -0.00000005
  14        -0.00088121
  15        -0.00019657
  16        -0.00000001
  17        -0.00000002
  18        -0.00014313
  19         0.00006550
  20         0.00057384
  21        -0.00000001
  22        -0.00000003
  23        -0.00015098
  24         0.00006909
  25         0.00016118
  26         0.00000000
  27         0.00000000
  28        -0.00000144
  29         0.00000066
  30         0.00000000
  31         0.00000000
  32         0.33183630
  33         0.43583725
  34         0.00824553
  35        -0.01051720
  36         0.00058741
  37         0.00000002
  38         0.00000010
  39        -0.00186988
  40        -0.00000001
  41        -0.00000004
  42         0.00126575
  43         0.00000001
  44         0.00000005
  45        -0.00088121
  46         0.00019657
  47        -0.00000001
  48        -0.00000002
  49         0.00014314
  50        -0.00006550
  51        -0.00057384
  52        -0.00000001
  53        -0.00000003
  54         0.00015098
  55        -0.00006909
  56         0.00016118
  57        -0.00000000
  58        -0.00000000
  59        -0.00000144
  60         0.00000066
  61        -0.00000000
  62        -0.00000000
Sym=     2a  
Ene=   -11.3480
Spin= Alpha
Occup=    2.00000
   1         0.33192518
   2         0.43610890
   3         0.00707994
   4        -0.00882818
   5        -0.00034733
   6         0.00000003
   7         0.00000014
   8         0.00113589
   9         0.00000000
  10         0.00000001
  11        -0.00040954
  12         0.00000001
  13         0.00000006
  14         0.00062556
  15         0.00013355
  16         0.00000001
  17         0.00000002
  18         0.00014496
  19        -0.00006634
  20         0.00004942
  21         0.00000001
  22         0.00000003
  23         0.00012449
  24        -0.00005696
  25        -0.00005395
  26         0.00000000
  27         0.00000000
  28         0.00000647
  29        -0.00000296
  30        -0.00000000
  31        -0.00000000
  32         0.33192443
  33         0.43610790
  34         0.00707993
  35        -0.00882815
  36        -0.00034733
  37         0.00000003
  38         0.00000014
  39        -0.00113588
  40         0.00000000
  41         0.00000001
  42         0.00040954
  43         0.00000001
  44         0.00000007
  45        -0.00062555
  46         0.00013354
  47        -0.00000001
  48        -0.00000002
  49         0.00014496
  50        -0.00006633
  51         0.00004943
  52        -0.00000001
  53        -0.00000003
  54         0.00012449
  55        -0.00005696
  56         0.00005394
  57         0.00000000
  58         0.00000000
  59        -0.00000647
  60         0.00000296
  61        -0.00000000
  62        -0.00000000
Sym=     3a  
Ene=     0.0000
Spin= Alpha
Occup=    1.93310
   1        -0.07361759
   2        -0.17009333
   3         0.30129238
   4         0.39268715
   5         0.13989663
   6        -0.00000039
   7        -0.00000174
   8        -0.06494365
   9        -0.00000049
  10        -0.00000219
  11        -0.06052423
  12        -0.00000044
  13        -0.00000198
  14        -0.02238320
  15        -0.00436928
  16        -0.00000011
  17        -0.00000050
  18        -0.00232791
  19         0.00106525
  20        -0.00884103
  21        -0.00000024
  22        -0.00000110
  23        -0.00471749
  24         0.00215870
  25         0.00047570
  26         0.00000010
  27         0.00000044
  28         0.00130397
  29        -0.00059670
  30         0.00000013
  31         0.00000016
  32         0.07361759
  33         0.17009333
  34        -0.30129238
  35        -0.39268715
  36        -0.13989663
  37         0.00000039
  38         0.00000174
  39        -0.06494365
  40         0.00000050
  41         0.00000225
  42        -0.06052422
  43         0.00000045
  44         0.00000205
  45        -0.02238320
  46         0.00436928
  47        -0.00000011
  48        -0.00000052
  49         0.00232792
  50        -0.00106523
  51         0.00884103
  52        -0.00000024
  53        -0.00000110
  54         0.00471750
  55        -0.00215868
  56         0.00047570
  57        -0.00000010
  58        -0.00000044
  59         0.00130398
  60        -0.00059668
  61        -0.00000013
  62        -0.00000017
Sym=     4a  
Ene=     0.0000
Spin= Alpha
Occup=    1.95550
   1        -0.06848375
   2        -0.15800038
   3         0.27193623
   4         0.35142509
   5         0.08742768
   6        -0.00000004
   7        -0.00000023
   8         0.04402718
   9        -0.00000015
  10        -0.00000074
  11         0.04555210
  12        -0.00000020
  13        -0.00000096
  14         0.00009019
  15         0.00402526
  16        -0.00000001
  17        -0.00000005
  18        -0.00115879
  19         0.00053026
  20         0.00992904
  21         0.00000009
  22         0.00000041
  23         0.00044601
  24        -0.00020409
  25         0.00326654
  26         0.00000006
  27         0.00000026
  28         0.00090733
  29        -0.00041520
  30         0.00000008
  31         0.00000011
  32        -0.06848374
  33        -0.15800037
  34         0.27193622
  35         0.35142508
  36         0.08742767
  37        -0.00000004
  38        -0.00000024
  39        -0.04402718
  40        -0.00000016
  41        -0.00000078
  42        -0.04555211
  43        -0.00000022
  44        -0.00000102
  45        -0.00009019
  46         0.00402526
  47         0.00000001
  48         0.00000006
  49        -0.00115879
  50         0.00053025
  51         0.00992904
  52        -0.00000009
  53        -0.00000043
  54         0.00044601
  55        -0.00020409
  56        -0.00326654
  57         0.00000006
  58         0.00000027
  59        -0.00090734
  60         0.00041518
  61         0.00000009
  62         0.00000011
Sym=     5a  
Ene=     0.0000
Spin= Alpha
Occup=    1.86319
   1        -0.01463623
   2        -0.03477296
   3         0.07057160
   4         0.07956651
   5         0.10533393
   6        -0.00000495
   7        -0.00002281
   8        -0.30664835
   9        -0.00000491
  10        -0.00002262
  11        -0.30094433
  12        -0.00000313
  13        -0.00001443
  14        -0.14566933
  15        -0.01006845
  16        -0.00000028
  17        -0.00000127
  18        -0.00274735
  19         0.00125719
  20        -0.02537260
  21        -0.00000071
  22        -0.00000328
  23        -0.00575187
  24         0.00263206
  25        -0.00023112
  26         0.00000015
  27         0.00000068
  28         0.00280946
  29        -0.00128560
  30         0.00000016
  31         0.00000022
  32        -0.01463623
  33        -0.03477296
  34         0.07057160
  35         0.07956651
  36         0.10533393
  37        -0.00000498
  38        -0.00002291
  39         0.30664835
  40        -0.00000494
  41        -0.00002276
  42         0.30094433
  43        -0.00000316
  44        -0.00001457
  45         0.14566933
  46        -0.01006845
  47         0.00000028
  48         0.00000129
  49        -0.00274737
  50         0.00125715
  51        -0.02537260
  52         0.00000072
  53         0.00000330
  54        -0.00575190
  55         0.00263198
  56         0.00023112
  57         0.00000015
  58         0.00000069
  59        -0.00280947
  60         0.00128558
  61         0.00000017
  62         0.00000022
Sym=     6a  
Ene=     0.0000
Spin= Alpha
Occup=    1.70567
   1         0.00000000
   2         0.00000001
   3        -0.00000002
   4        -0.00000002
   5        -0.00000000
   6         0.29274654
   7        -0.06379862
   8         0.00000002
   9         0.28772734
  10        -0.06270479
  11         0.00000002
  12         0.17833415
  13        -0.03886458
  14         0.00000001
  15         0.00000000
  16         0.00604108
  17        -0.00131654
  18         0.00000018
  19         0.00000039
  20         0.00000000
  21         0.02434020
  22        -0.00530447
  23         0.00000034
  24         0.00000072
  25        -0.00000000
  26         0.00153638
  27        -0.00033482
  28        -0.00000014
  29        -0.00000030
  30        -0.00137648
  31         0.00103284
  32         0.00000000
  33         0.00000001
  34        -0.00000002
  35        -0.00000002
  36        -0.00000000
  37         0.29274671
  38        -0.06379783
  39        -0.00000002
  40         0.28772752
  41        -0.06270399
  42        -0.00000002
  43         0.17833425
  44        -0.03886411
  45        -0.00000001
  46         0.00000000
  47        -0.00604109
  48         0.00131653
  49         0.00000019
  50         0.00000040
  51         0.00000000
  52        -0.02434021
  53         0.00530444
  54         0.00000036
  55         0.00000076
  56         0.00000000
  57         0.00153637
  58        -0.00033483
  59         0.00000014
  60         0.00000030
  61        -0.00137648
  62         0.00103284
Sym=     7a  
Ene=     0.0000
Spin= Alpha
Occup=    0.29945
   1         0.00000000
   2         0.00000000
   3        -0.00000000
   4        -0.00000000
   5         0.00000000
   6        -0.37071807
   7         0.08079129
   8         0.00000002
   9        -0.35968446
  10         0.07838674
  11         0.00000002
  12        -0.12998801
  13         0.02832854
  14         0.00000001
  15         0.00000000
  16        -0.00376509
  17         0.00082056
  18        -0.00000038
  19        -0.00000082
  20         0.00000000
  21        -0.01096152
  22         0.00238892
  23        -0.00000073
  24        -0.00000158
  25         0.00000000
  26         0.00175839
  27        -0.00038321
  28        -0.00000001
  29        -0.00000002
  30        -0.00233820
  31         0.00175449
  32        -0.00000000
  33        -0.00000000
  34         0.00000000
  35         0.00000000
  36        -0.00000000
  37         0.37071839
  38        -0.08078984
  39         0.00000002
  40         0.35968478
  41        -0.07838528
  42         0.00000002
  43         0.12998812
  44        -0.02832801
  45         0.00000001
  46        -0.00000000
  47        -0.00376510
  48         0.00082049
  49         0.00000040
  50         0.00000086
  51        -0.00000000
  52        -0.01096155
  53         0.00238877
  54         0.00000078
  55         0.00000169
  56         0.00000000
  57        -0.00175839
  58         0.00038320
  59        -0.00000000
  60        -0.00000001
  61         0.00233822
  62        -0.00175446
Sym=     8a  
Ene=     0.0000
Spin= Alpha
Occup=    0.11598
   1        -0.02877023
   2        -0.06699626
   3         0.11795443
   4         0.22014447
   5         0.09105866
   6         0.00000870
   7         0.00003985
   8         0.44111841
   9         0.00000830
  10         0.00003802
  11         0.43876084
  12         0.00000176
  13         0.00000807
  14         0.12054202
  15         0.00561058
  16         0.00000056
  17         0.00000257
  18         0.00676068
  19        -0.00309372
  20         0.02466591
  21         0.00000098
  22         0.00000449
  23         0.01282845
  24        -0.00587039
  25         0.00345776
  26         0.00000022
  27         0.00000100
  28         0.00467663
  29        -0.00214000
  30         0.00000023
  31         0.00000030
  32         0.02877023
  33         0.06699626
  34        -0.11795443
  35        -0.22014447
  36        -0.09105866
  37        -0.00000861
  38        -0.00003944
  39         0.44111841
  40        -0.00000820
  41        -0.00003756
  42         0.43876084
  43        -0.00000174
  44        -0.00000801
  45         0.12054202
  46        -0.00561058
  47         0.00000060
  48         0.00000274
  49        -0.00676074
  50         0.00309358
  51        -0.02466591
  52         0.00000106
  53         0.00000482
  54        -0.01282860
  55         0.00587008
  56         0.00345776
  57        -0.00000021
  58        -0.00000098
  59         0.00467664
  60        -0.00213998
  61        -0.00000023
  62        -0.00000030
Sym=     9a  
Ene=     0.0000
Spin= Alpha
Occup=    0.05860
   1        -0.00000112
   2        -0.00000242
   3        -0.00000210
   4         0.00001474
   5         0.00001965
   6        -0.07667249
   7        -0.35181947
   8         0.00004100
   9        -0.08442777
  10        -0.38740506
  11         0.00004393
  12        -0.00750664
  13        -0.03444564
  14         0.00000756
  15        -0.00001008
  16         0.01297871
  17         0.05955304
  18        -0.00000430
  19         0.00000201
  20        -0.00001314
  21         0.02202984
  22         0.10108407
  23        -0.00000729
  24         0.00000342
  25         0.00000355
  26        -0.00257702
  27        -0.01182463
  28         0.00000172
  29        -0.00000080
  30        -0.00113164
  31        -0.00150811
  32         0.00000095
  33         0.00000200
  34         0.00000382
  35        -0.00001473
  36        -0.00002118
  37         0.07667147
  38         0.35181968
  39         0.00004165
  40         0.08442653
  41         0.38740532
  42         0.00004416
  43         0.00750682
  44         0.03444560
  45         0.00000682
  46         0.00001024
  47         0.01297809
  48         0.05955317
  49         0.00000448
  50        -0.00000210
  51         0.00001327
  52         0.02202868
  53         0.10108432
  54         0.00000757
  55        -0.00000355
  56         0.00000361
  57         0.00257687
  58         0.01182466
  59         0.00000177
  60        -0.00000083
  61         0.00113161
  62         0.00150814
Sym=    10a  
Ene=     0.0000
Spin= Alpha
Occup=    0.06851
   1        -0.00000361
   2        -0.00000850
   3         0.00002871
   4         0.00000811
   5        -0.00001968
   6         0.07408090
   7         0.33992623
   8        -0.00003007
   9         0.08290330
  10         0.38040905
  11        -0.00003154
  12         0.00707170
  13         0.03244904
  14         0.00000519
  15         0.00000866
  16        -0.01124437
  17        -0.05159506
  18         0.00000552
  19        -0.00000257
  20         0.00001392
  21        -0.01899555
  22        -0.08716114
  23         0.00000951
  24        -0.00000444
  25        -0.00000335
  26         0.00337385
  27         0.01548094
  28        -0.00000204
  29         0.00000095
  30         0.00124485
  31         0.00165901
  32        -0.00000377
  33        -0.00000890
  34         0.00003025
  35         0.00000827
  36        -0.00002084
  37         0.07407931
  38         0.33992659
  39         0.00002989
  40         0.08290173
  41         0.38040941
  42         0.00003109
  43         0.00707154
  44         0.03244908
  45        -0.00000573
  46         0.00000886
  47         0.01124386
  48         0.05159518
  49         0.00000569
  50        -0.00000265
  51         0.00001408
  52         0.01899452
  53         0.08716137
  54         0.00000978
  55        -0.00000457
  56         0.00000339
  57         0.00337368
  58         0.01548098
  59         0.00000207
  60        -0.00000096
  61         0.00124484
  62         0.00165902
Sym=    11a  
Ene=     0.2496
Spin= Alpha
Occup=    0.00000
   1        -0.03495037
   2        -0.06552627
   3        -0.11253055
   4         1.44286537
   5        -1.36561890
   6         0.00000041
   7         0.00000187
   8        -0.03734756
   9         0.00000985
  10         0.00004516
  11        -0.05558513
  12        -0.00002064
  13        -0.00009468
  14         0.07140743
  15         0.00384865
  16        -0.00000025
  17        -0.00000113
  18        -0.00250244
  19         0.00114510
  20         0.01106784
  21        -0.00000088
  22        -0.00000402
  23         0.00268696
  24        -0.00122953
  25        -0.00319744
  26         0.00000006
  27         0.00000027
  28         0.00022854
  29        -0.00010458
  30         0.00000003
  31         0.00000004
  32        -0.03495037
  33        -0.06552627
  34        -0.11253055
  35         1.44286538
  36        -1.36561890
  37         0.00000032
  38         0.00000148
  39         0.03734756
  40         0.00000990
  41         0.00004538
  42         0.05558513
  43        -0.00002127
  44        -0.00009757
  45        -0.07140743
  46         0.00384865
  47         0.00000024
  48         0.00000111
  49        -0.00250244
  50         0.00114509
  51         0.01106784
  52         0.00000090
  53         0.00000413
  54         0.00268696
  55        -0.00122953
  56         0.00319744
  57         0.00000006
  58         0.00000028
  59        -0.00022854
  60         0.00010458
  61         0.00000004
  62         0.00000005
Sym=    12a  
Ene=     0.2969
Spin= Alpha
Occup=    0.00000
   1        -0.02519536
   2        -0.04606322
   3        -0.09575867
   4         0.95512896
   5        -0.31530612
   6        -0.00000048
   7        -0.00000220
   8        -0.09763690
   9         0.00000121
  10         0.00000556
  11        -0.31238981
  12        -0.00000736
  13        -0.00003376
  14         1.09250555
  15        -0.01331395
  16        -0.00000006
  17        -0.00000029
  18        -0.00153073
  19         0.00070046
  20         0.08231943
  21        -0.00000074
  22        -0.00000338
  23         0.00035340
  24        -0.00016168
  25         0.00806669
  26         0.00000002
  27         0.00000008
  28         0.00040374
  29        -0.00018475
  30         0.00000002
  31         0.00000003
  32         0.02519536
  33         0.04606322
  34         0.09575867
  35        -0.95512895
  36         0.31530611
  37        -0.00000011
  38        -0.00000052
  39        -0.09763690
  40        -0.00000455
  41        -0.00002088
  42        -0.31238982
  43         0.00001273
  44         0.00005840
  45         1.09250555
  46         0.01331395
  47        -0.00000009
  48        -0.00000042
  49         0.00153073
  50        -0.00070045
  51        -0.08231943
  52        -0.00000083
  53        -0.00000381
  54        -0.00035337
  55         0.00016173
  56         0.00806669
  57        -0.00000003
  58        -0.00000014
  59         0.00040374
  60        -0.00018475
  61        -0.00000001
  62        -0.00000001
Sym=    13a  
Ene=     0.3043
Spin= Alpha
Occup=    0.00000
   1        -0.00000414
   2        -0.00000768
   3        -0.00001552
   4         0.00017899
   5        -0.00016491
   6        -0.02187396
   7        -0.10037189
   8        -0.00000551
   9        -0.11245847
  10        -0.51603033
  11         0.00000741
  12         0.17343848
  13         0.79584304
  14        -0.00003678
  15         0.00000060
  16         0.00084134
  17         0.00386055
  18        -0.00000031
  19         0.00000014
  20        -0.00000403
  21         0.00165245
  22         0.00758186
  23        -0.00000364
  24         0.00000170
  25        -0.00000058
  26        -0.00039352
  27        -0.00180571
  28        -0.00000001
  29         0.00000000
  30         0.00048120
  31         0.00064130
  32        -0.00000490
  33        -0.00000907
  34        -0.00001857
  35         0.00020775
  36        -0.00017108
  37        -0.02187409
  38        -0.10037186
  39         0.00000855
  40        -0.11245834
  41        -0.51603036
  42         0.00000244
  43         0.17343745
  44         0.79584326
  45         0.00000081
  46         0.00000015
  47        -0.00084132
  48        -0.00386055
  49        -0.00000036
  50         0.00000017
  51        -0.00000140
  52        -0.00165219
  53        -0.00758191
  54        -0.00000373
  55         0.00000174
  56         0.00000032
  57        -0.00039351
  58        -0.00180572
  59        -0.00000000
  60         0.00000000
  61         0.00048120
  62         0.00064130
Sym=    14a  
Ene=     0.3537
Spin= Alpha
Occup=    0.00000
   1        -0.00000000
   2        -0.00000000
   3        -0.00000000
   4         0.00000000
   5        -0.00000001
   6        -0.15951289
   7         0.03476240
   8        -0.00000000
   9        -0.58797077
  10         0.12813458
  11        -0.00000001
  12         0.77981961
  13        -0.16994105
  14         0.00000002
  15        -0.00000000
  16         0.00076728
  17        -0.00016724
  18        -0.00000011
  19        -0.00000024
  20        -0.00000000
  21        -0.04968293
  22         0.01082760
  23        -0.00000004
  24        -0.00000009
  25         0.00000000
  26        -0.00223114
  27         0.00048625
  28         0.00000010
  29         0.00000023
  30         0.00141123
  31        -0.00105892
  32        -0.00000000
  33        -0.00000000
  34        -0.00000000
  35         0.00000000
  36        -0.00000001
  37        -0.15951280
  38         0.03476282
  39         0.00000000
  40        -0.58797003
  41         0.12813800
  42         0.00000001
  43         0.77981758
  44        -0.16995042
  45        -0.00000002
  46        -0.00000000
  47        -0.00076729
  48         0.00016719
  49        -0.00000011
  50        -0.00000025
  51        -0.00000000
  52         0.04968301
  53        -0.01082720
  54        -0.00000005
  55        -0.00000010
  56        -0.00000000
  57        -0.00223115
  58         0.00048622
  59        -0.00000010
  60        -0.00000023
  61         0.00141124
  62        -0.00105892
Sym=    15a  
Ene=     0.3679
Spin= Alpha
Occup=    0.00000
   1        -0.00000010
   2        -0.00000021
   3         0.00000197
   4        -0.00003732
   5         0.00019486
   6        -0.02128119
   7        -0.09765431
   8        -0.00000631
   9        -0.11520215
  10        -0.52863046
  11        -0.00002577
  12         0.28429838
  13         1.30455414
  14         0.00016883
  15        -0.00000220
  16        -0.00185997
  17        -0.00853479
  18         0.00000015
  19        -0.00000007
  20         0.00000504
  21         0.01017212
  22         0.04667420
  23        -0.00000333
  24         0.00000155
  25         0.00000084
  26         0.00089723
  27         0.00411701
  28        -0.00000001
  29         0.00000000
  30         0.00046700
  31         0.00062239
  32         0.00000016
  33         0.00000025
  34         0.00000013
  35         0.00002257
  36        -0.00019192
  37         0.02128234
  38         0.09765406
  39        -0.00000293
  40         0.11520635
  41         0.52862954
  42        -0.00000615
  43        -0.28430390
  44        -1.30455294
  45         0.00013406
  46         0.00000161
  47        -0.00185999
  48        -0.00853478
  49        -0.00000011
  50         0.00000005
  51        -0.00000604
  52         0.01017132
  53         0.04667438
  54         0.00000334
  55        -0.00000155
  56         0.00000059
  57        -0.00089721
  58        -0.00411701
  59        -0.00000004
  60         0.00000002
  61        -0.00046701
  62        -0.00062238
Sym=    16a  
Ene=     0.3708
Spin= Alpha
Occup=    0.00000
   1        -0.00024413
   2        -0.00241605
   3         0.04989185
   4        -0.33913355
   5        -0.00363575
   6        -0.00000042
   7        -0.00000193
   8        -0.10371869
   9        -0.00000085
  10        -0.00000397
  11        -0.59430211
  12        -0.00000101
  13        -0.00000458
  14         1.04790461
  15        -0.01763503
  16        -0.00000003
  17        -0.00000011
  18         0.00096144
  19        -0.00043995
  20        -0.03043774
  21        -0.00000063
  22        -0.00000291
  23        -0.00280861
  24         0.00128520
  25         0.00755897
  26         0.00000001
  27         0.00000006
  28         0.00082815
  29        -0.00037896
  30         0.00000002
  31         0.00000003
  32        -0.00024413
  33        -0.00241605
  34         0.04989185
  35        -0.33913355
  36        -0.00363573
  37        -0.00000118
  38        -0.00000541
  39         0.10371869
  40        -0.00000476
  41        -0.00002191
  42         0.59430211
  43         0.00000845
  44         0.00003883
  45        -1.04790462
  46        -0.01763503
  47         0.00000009
  48         0.00000041
  49         0.00096144
  50        -0.00043994
  51        -0.03043774
  52         0.00000030
  53         0.00000137
  54        -0.00280861
  55         0.00128519
  56        -0.00755897
  57         0.00000004
  58         0.00000021
  59        -0.00082815
  60         0.00037895
  61         0.00000004
  62         0.00000005
Sym=    17a  
Ene=     0.3826
Spin= Alpha
Occup=    0.00000
   1        -0.00000000
   2        -0.00000000
   3        -0.00000000
   4         0.00000003
   5        -0.00000011
   6         0.11292546
   7        -0.02460986
   8        -0.00000000
   9         0.53383247
  10        -0.11633819
  11         0.00000000
  12        -1.28835363
  13         0.28077099
  14        -0.00000007
  15         0.00000000
  16         0.01063340
  17        -0.00231734
  18         0.00000013
  19         0.00000028
  20        -0.00000000
  21        -0.02185738
  22         0.00476329
  23        -0.00000008
  24        -0.00000018
  25        -0.00000000
  26        -0.00451226
  27         0.00098336
  28        -0.00000005
  29        -0.00000011
  30        -0.00071791
  31         0.00053869
  32         0.00000000
  33         0.00000000
  34         0.00000000
  35        -0.00000003
  36         0.00000011
  37        -0.11292547
  38         0.02460980
  39        -0.00000000
  40        -0.53383253
  41         0.11633787
  42         0.00000000
  43         1.28835375
  44        -0.28077044
  45        -0.00000007
  46        -0.00000000
  47         0.01063340
  48        -0.00231733
  49        -0.00000013
  50        -0.00000028
  51         0.00000000
  52        -0.02185734
  53         0.00476345
  54         0.00000007
  55         0.00000016
  56        -0.00000000
  57         0.00451226
  58        -0.00098336
  59        -0.00000005
  60        -0.00000011
  61         0.00071792
  62        -0.00053868
Sym=    18a  
Ene=     0.4385
Spin= Alpha
Occup=    0.00000
   1        -0.02003257
   2        -0.03616748
   3        -0.12127807
   4         1.65776561
   5        -5.37198522
   6        -0.00000175
   7        -0.00000802
   8         0.04420795
   9        -0.00000624
  10        -0.00002857
  11         0.15463425
  12         0.00001142
  13         0.00005226
  14        -3.00906664
  15         0.03062749
  16        -0.00000008
  17        -0.00000034
  18        -0.00215101
  19         0.00098429
  20        -0.16772552
  21         0.00000058
  22         0.00000265
  23         0.01021384
  24        -0.00467382
  25        -0.01316274
  26         0.00000006
  27         0.00000029
  28        -0.00006014
  29         0.00002752
  30         0.00000006
  31         0.00000009
  32         0.02003257
  33         0.03616748
  34         0.12127807
  35        -1.65776560
  36         5.37198522
  37         0.00000180
  38         0.00000824
  39         0.04420795
  40         0.00000638
  41         0.00002923
  42         0.15463425
  43        -0.00001155
  44        -0.00005285
  45        -3.00906663
  46        -0.03062749
  47        -0.00000008
  48        -0.00000034
  49         0.00215102
  50        -0.00098428
  51         0.16772552
  52         0.00000057
  53         0.00000260
  54        -0.01021387
  55         0.00467374
  56        -0.01316274
  57        -0.00000006
  58        -0.00000029
  59        -0.00006014
  60         0.00002752
  61        -0.00000007
  62        -0.00000009
Sym=    19a  
Ene=     0.7325
Spin= Alpha
Occup=    0.00000
   1        -0.00000075
   2        -0.00000136
   3        -0.00000424
   4         0.00003289
   5        -0.00002194
   6        -0.00207503