[Molden Format]
[N_ATOMS]
                    2
[ATOMS] (AU)
C1          1      6           0.00000000      0.00000000      0.00000000
C2          2      6           0.00000000      0.00000000      3.77945227
[5D]
[7F]
[CHARGE] (MULLIKEN)
   0.0000000000000000     
   0.0000000000000000     
[GTO] (AU)
   1
   s   6
  0.135753497E+05  0.606455036E-03
  0.203523337E+04  0.469790889E-02
  0.463225624E+03  0.243324776E-01
  0.131200196E+03  0.973999683E-01
  0.428530159E+02  0.301955843E+00
  0.155841858E+02  0.662336091E+00
   s   2
  0.620671385E+01  0.655953085E+00
  0.257648965E+01  0.375856333E+00
   s   1
  0.576963394E+00  0.100000000E+01
   s   1
  0.229728314E+00  0.100000000E+01
   s   1
  0.951644400E-01  0.100000000E+01
   p   4
  0.346972322E+02  0.113272200E-01
  0.795826228E+01  0.761696592E-01
  0.237808269E+01  0.301922522E+00
  0.814332082E+00  0.727850273E+00
   p   1
  0.288875473E+00  0.100000000E+01
   p   1
  0.100568237E+00  0.100000000E+01
   d   1
  0.109700000E+01  0.100000000E+01
   d   1
  0.318000000E+00  0.100000000E+01
   f   1
  0.761000000E+00  0.100000000E+01
 
   2
   s   6
  0.135753497E+05  0.606455036E-03
  0.203523337E+04  0.469790889E-02
  0.463225624E+03  0.243324776E-01
  0.131200196E+03  0.973999683E-01
  0.428530159E+02  0.301955843E+00
  0.155841858E+02  0.662336091E+00
   s   2
  0.620671385E+01  0.655953085E+00
  0.257648965E+01  0.375856333E+00
   s   1
  0.576963394E+00  0.100000000E+01
   s   1
  0.229728314E+00  0.100000000E+01
   s   1
  0.951644400E-01  0.100000000E+01
   p   4
  0.346972322E+02  0.113272200E-01
  0.795826228E+01  0.761696592E-01
  0.237808269E+01  0.301922522E+00
  0.814332082E+00  0.727850273E+00
   p   1
  0.288875473E+00  0.100000000E+01
   p   1
  0.100568237E+00  0.100000000E+01
   d   1
  0.109700000E+01  0.100000000E+01
   d   1
  0.318000000E+00  0.100000000E+01
   f   1
  0.761000000E+00  0.100000000E+01
 
[MO]
Sym=     1a  
Ene=   -11.3310
Spin= Alpha
Occup=    2.00000
   1         0.33118422
   2         0.43280256
   3         0.01148827
   4        -0.00334097
   5         0.00333020
   6         0.00000000
   7        -0.00000000
   8         0.00038917
   9        -0.00000000
  10        -0.00000000
  11         0.00037031
  12         0.00000000
  13        -0.00000000
  14         0.00014993
  15        -0.00000000
  16        -0.00000000
  17        -0.00000000
  18         0.00000000
  19         0.00000000
  20         0.00000000
  21         0.00000000
  22        -0.00000000
  23        -0.00000000
  24        -0.00000000
  25         0.00000000
  26        -0.00000000
  27         0.00000000
  28        -0.00000000
  29        -0.00000000
  30         0.00000000
  31         0.00000000
  32         0.33118422
  33         0.43280256
  34         0.01148827
  35        -0.00334097
  36         0.00333020
  37        -0.00000000
  38         0.00000000
  39        -0.00038917
  40         0.00000000
  41        -0.00000000
  42        -0.00037031
  43         0.00000000
  44         0.00000000
  45        -0.00014993
  46         0.00000000
  47         0.00000000
  48        -0.00000000
  49         0.00000000
  50         0.00000000
  51        -0.00000000
  52        -0.00000000
  53         0.00000000
  54         0.00000000
  55        -0.00000000
  56         0.00000000
  57         0.00000000
  58        -0.00000000
  59        -0.00000000
  60         0.00000000
  61        -0.00000000
  62         0.00000000
Sym=     2a  
Ene=   -11.3260
Spin= Alpha
Occup=    2.00000
   1        -0.33138963
   2        -0.43319812
   3        -0.01096648
   4         0.00395926
   5        -0.00314143
   6        -0.00000000
   7        -0.00000000
   8         0.00037599
   9         0.00000000
  10         0.00000000
  11         0.00035778
  12        -0.00000000
  13        -0.00000000
  14         0.00014485
  15        -0.00000000
  16        -0.00000000
  17         0.00000000
  18        -0.00000000
  19        -0.00000000
  20         0.00000000
  21         0.00000000
  22         0.00000000
  23        -0.00000000
  24        -0.00000000
  25         0.00000000
  26         0.00000000
  27         0.00000000
  28         0.00000000
  29         0.00000000
  30         0.00000000
  31        -0.00000000
  32         0.33138963
  33         0.43319812
  34         0.01096648
  35        -0.00395926
  36         0.00314143
  37        -0.00000000
  38         0.00000000
  39         0.00037599
  40         0.00000000
  41        -0.00000000
  42         0.00035778
  43        -0.00000000
  44         0.00000000
  45         0.00014485
  46         0.00000000
  47        -0.00000000
  48         0.00000000
  49         0.00000000
  50         0.00000000
  51        -0.00000000
  52         0.00000000
  53         0.00000000
  54         0.00000000
  55         0.00000000
  56         0.00000000
  57        -0.00000000
  58        -0.00000000
  59         0.00000000
  60        -0.00000000
  61        -0.00000000
  62        -0.00000000
Sym=     3a  
Ene=    -0.8890
Spin= Alpha
Occup=    2.00000
   1        -0.07141918
   2        -0.15642811
   3         0.26004611
   4         0.30657391
   5         0.09400376
   6         0.00000000
   7         0.00000000
   8         0.09237390
   9        -0.00000000
  10         0.00000000
  11         0.08789895
  12         0.00000000
  13        -0.00000000
  14         0.03558723
  15         0.00000000
  16        -0.00000000
  17        -0.00000000
  18        -0.00000000
  19        -0.00000000
  20         0.00000000
  21         0.00000000
  22         0.00000000
  23         0.00000000
  24         0.00000000
  25         0.00000000
  26        -0.00000000
  27         0.00000000
  28         0.00000000
  29         0.00000000
  30         0.00000000
  31         0.00000000
  32        -0.07141918
  33        -0.15642811
  34         0.26004611
  35         0.30657391
  36         0.09400376
  37         0.00000000
  38         0.00000000
  39        -0.09237390
  40         0.00000000
  41        -0.00000000
  42        -0.08789895
  43        -0.00000000
  44         0.00000000
  45        -0.03558723
  46         0.00000000
  47        -0.00000000
  48        -0.00000000
  49         0.00000000
  50         0.00000000
  51        -0.00000000
  52         0.00000000
  53         0.00000000
  54        -0.00000000
  55        -0.00000000
  56         0.00000000
  57        -0.00000000
  58         0.00000000
  59         0.00000000
  60         0.00000000
  61         0.00000000
  62         0.00000000
Sym=     4a  
Ene=    -0.6396
Spin= Alpha
Occup=    2.00000
   1         0.07450872
   2         0.17049260
   3        -0.30165874
   4        -0.35521080
   5        -0.10902575
   6        -0.00000000
   7         0.00000000
   8         0.11979909
   9         0.00000000
  10         0.00000000
  11         0.11399555
  12        -0.00000000
  13         0.00000000
  14         0.04615283
  15        -0.00000000
  16        -0.00000000
  17        -0.00000000
  18         0.00000000
  19         0.00000000
  20         0.00000000
  21         0.00000000
  22        -0.00000000
  23         0.00000000
  24         0.00000000
  25         0.00000000
  26        -0.00000000
  27        -0.00000000
  28        -0.00000000
  29        -0.00000000
  30        -0.00000000
  31         0.00000000
  32        -0.07450872
  33        -0.17049260
  34         0.30165874
  35         0.35521080
  36         0.10902575
  37        -0.00000000
  38        -0.00000000
  39         0.11979909
  40        -0.00000000
  41         0.00000000
  42         0.11399555
  43         0.00000000
  44        -0.00000000
  45         0.04615283
  46         0.00000000
  47         0.00000000
  48        -0.00000000
  49        -0.00000000
  50        -0.00000000
  51        -0.00000000
  52         0.00000000
  53         0.00000000
  54        -0.00000000
  55        -0.00000000
  56         0.00000000
  57         0.00000000
  58         0.00000000
  59         0.00000000
  60        -0.00000000
  61        -0.00000000
  62        -0.00000000
Sym=     5a  
Ene=    -0.4877
Spin= Alpha
Occup=    1.33333
   1         0.00000000
   2        -0.00000000
   3         0.00000000
   4        -0.00000000
   5         0.00000000
   6         0.33512403
   7        -0.01281813
   8        -0.00000000
   9         0.31888932
  10        -0.01219717
  11         0.00000000
  12         0.12910719
  13        -0.00493821
  14         0.00000000
  15        -0.00000000
  16        -0.00000000
  17         0.00000000
  18         0.00000000
  19        -0.00000000
  20         0.00000000
  21        -0.00000000
  22         0.00000000
  23        -0.00000000
  24        -0.00000000
  25         0.00000000
  26        -0.00000000
  27         0.00000000
  28         0.00000000
  29        -0.00000000
  30        -0.00000000
  31         0.00000000
  32         0.00000000
  33        -0.00000000
  34         0.00000000
  35        -0.00000000
  36         0.00000000
  37         0.33512403
  38        -0.01281813
  39        -0.00000000
  40         0.31888932
  41        -0.01219717
  42         0.00000000
  43         0.12910719
  44        -0.00493821
  45         0.00000000
  46         0.00000000
  47        -0.00000000
  48        -0.00000000
  49         0.00000000
  50        -0.00000000
  51        -0.00000000
  52         0.00000000
  53         0.00000000
  54         0.00000000
  55         0.00000000
  56         0.00000000
  57         0.00000000
  58        -0.00000000
  59         0.00000000
  60         0.00000000
  61        -0.00000000
  62         0.00000000
Sym=     6a  
Ene=    -0.4877
Spin= Alpha
Occup=    1.33333
   1        -0.00000000
   2        -0.00000000
   3         0.00000000
   4         0.00000000
   5        -0.00000000
   6         0.01281813
   7         0.33512403
   8        -0.00000000
   9         0.01219717
  10         0.31888932
  11        -0.00000000
  12         0.00493821
  13         0.12910719
  14        -0.00000000
  15         0.00000000
  16        -0.00000000
  17        -0.00000000
  18        -0.00000000
  19         0.00000000
  20        -0.00000000
  21         0.00000000
  22        -0.00000000
  23         0.00000000
  24        -0.00000000
  25        -0.00000000
  26        -0.00000000
  27        -0.00000000
  28        -0.00000000
  29         0.00000000
  30        -0.00000000
  31         0.00000000
  32        -0.00000000
  33        -0.00000000
  34         0.00000000
  35        -0.00000000
  36         0.00000000
  37         0.01281813
  38         0.33512403
  39         0.00000000
  40         0.01219717
  41         0.31888932
  42         0.00000000
  43         0.00493821
  44         0.12910719
  45        -0.00000000
  46        -0.00000000
  47         0.00000000
  48        -0.00000000
  49        -0.00000000
  50        -0.00000000
  51         0.00000000
  52         0.00000000
  53         0.00000000
  54         0.00000000
  55         0.00000000
  56        -0.00000000
  57         0.00000000
  58         0.00000000
  59         0.00000000
  60         0.00000000
  61        -0.00000000
  62        -0.00000000
Sym=     7a  
Ene=    -0.4860
Spin= Alpha
Occup=    1.33333
   1        -0.02906235
   2        -0.07216688
   3         0.14123662
   4         0.16601564
   5         0.05103153
   6        -0.00000000
   7        -0.00000000
   8        -0.31185598
   9        -0.00000000
  10        -0.00000000
  11        -0.29674846
  12        -0.00000000
  13        -0.00000000
  14        -0.12014313
  15         0.00000000
  16        -0.00000000
  17        -0.00000000
  18         0.00000000
  19        -0.00000000
  20        -0.00000000
  21        -0.00000000
  22         0.00000000
  23        -0.00000000
  24         0.00000000
  25        -0.00000000
  26        -0.00000000
  27         0.00000000
  28         0.00000000
  29         0.00000000
  30         0.00000000
  31        -0.00000000
  32        -0.02906235
  33        -0.07216688
  34         0.14123662
  35         0.16601564
  36         0.05103153
  37        -0.00000000
  38        -0.00000000
  39         0.31185598
  40         0.00000000
  41        -0.00000000
  42         0.29674846
  43         0.00000000
  44        -0.00000000
  45         0.12014313
  46        -0.00000000
  47         0.00000000
  48        -0.00000000
  49        -0.00000000
  50        -0.00000000
  51         0.00000000
  52        -0.00000000
  53         0.00000000
  54        -0.00000000
  55         0.00000000
  56        -0.00000000
  57         0.00000000
  58         0.00000000
  59        -0.00000000
  60        -0.00000000
  61         0.00000000
  62        -0.00000000
Sym=     8a  
Ene=    -0.3831
Spin= Alpha
Occup=    0.00000
   1        -0.00000000
   2         0.00000000
   3        -0.00000000
   4         0.00000000
   5         0.00000000
   6        -0.20646174
   7        -0.31712828
   8         0.00000000
   9        -0.19645992
  10        -0.30176535
  11         0.00000000
  12        -0.07953979
  13        -0.12217429
  14         0.00000000
  15         0.00000000
  16         0.00000000
  17         0.00000000
  18        -0.00000000
  19         0.00000000
  20         0.00000000
  21         0.00000000
  22         0.00000000
  23         0.00000000
  24        -0.00000000
  25         0.00000000
  26        -0.00000000
  27         0.00000000
  28         0.00000000
  29        -0.00000000
  30         0.00000000
  31        -0.00000000
  32         0.00000000
  33        -0.00000000
  34         0.00000000
  35        -0.00000000
  36         0.00000000
  37         0.20646174
  38         0.31712828
  39        -0.00000000
  40         0.19645992
  41         0.30176535
  42        -0.00000000
  43         0.07953979
  44         0.12217429
  45         0.00000000
  46        -0.00000000
  47         0.00000000
  48         0.00000000
  49        -0.00000000
  50        -0.00000000
  51        -0.00000000
  52        -0.00000000
  53        -0.00000000
  54         0.00000000
  55         0.00000000
  56        -0.00000000
  57        -0.00000000
  58        -0.00000000
  59         0.00000000
  60         0.00000000
  61        -0.00000000
  62        -0.00000000
Sym=     9a  
Ene=    -0.3831
Spin= Alpha
Occup=    0.00000
   1        -0.00000000
   2         0.00000000
   3        -0.00000000
   4        -0.00000000
   5         0.00000000
   6        -0.31712828
   7         0.20646174
   8         0.00000000
   9        -0.30176535
  10         0.19645992
  11         0.00000000
  12        -0.12217429
  13         0.07953979
  14         0.00000000
  15        -0.00000000
  16         0.00000000
  17        -0.00000000
  18         0.00000000
  19        -0.00000000
  20         0.00000000
  21         0.00000000
  22        -0.00000000
  23        -0.00000000
  24         0.00000000
  25         0.00000000
  26        -0.00000000
  27         0.00000000
  28        -0.00000000
  29         0.00000000
  30         0.00000000
  31         0.00000000
  32         0.00000000
  33        -0.00000000
  34         0.00000000
  35         0.00000000
  36        -0.00000000
  37         0.31712828
  38        -0.20646174
  39        -0.00000000
  40         0.30176535
  41        -0.19645992
  42        -0.00000000
  43         0.12217429
  44        -0.07953979
  45         0.00000000
  46         0.00000000
  47         0.00000000
  48         0.00000000
  49         0.00000000
  50         0.00000000
  51        -0.00000000
  52        -0.00000000
  53        -0.00000000
  54        -0.00000000
  55         0.00000000
  56        -0.00000000
  57        -0.00000000
  58        -0.00000000
  59        -0.00000000
  60        -0.00000000
  61        -0.00000000
  62         0.00000000
Sym=    10a  
Ene=    -0.2658
Spin= Alpha
Occup=    0.00000
   1        -0.03900691
   2        -0.10182035
   3         0.21019983
   4         0.24686356
   5         0.07593882
   6        -0.00000000
   7        -0.00000000
   8         0.41450872
   9        -0.00000000
  10        -0.00000000
  11         0.39442830
  12         0.00000000
  13        -0.00000000
  14         0.15969030
  15         0.00000000
  16         0.00000000
  17        -0.00000000
  18        -0.00000000
  19        -0.00000000
  20        -0.00000000
  21        -0.00000000
  22        -0.00000000
  23        -0.00000000
  24        -0.00000000
  25        -0.00000000
  26        -0.00000000
  27         0.00000000
  28        -0.00000000
  29         0.00000000
  30         0.00000000
  31        -0.00000000
  32         0.03900691
  33         0.10182035
  34        -0.21019983
  35        -0.24686356
  36        -0.07593882
  37         0.00000000
  38         0.00000000
  39         0.41450872
  40         0.00000000
  41        -0.00000000
  42         0.39442830
  43         0.00000000
  44         0.00000000
  45         0.15969030
  46        -0.00000000
  47         0.00000000
  48         0.00000000
  49         0.00000000
  50        -0.00000000
  51         0.00000000
  52        -0.00000000
  53         0.00000000
  54         0.00000000
  55         0.00000000
  56        -0.00000000
  57        -0.00000000
  58        -0.00000000
  59         0.00000000
  60         0.00000000
  61        -0.00000000
  62         0.00000000
Sym=    11a  
Ene=     3.3832
Spin= Alpha
Occup=    0.00000
   1         0.00203029
   2         0.01879670
   3         0.49092919
   4        -1.87056782
   5         1.53516702
   6         0.00000000
   7        -0.00000000
   8        -0.00529939
   9         0.00000000
  10         0.00000000
  11         0.16273044
  12        -0.00000000
  13        -0.00000000
  14        -0.23002996
  15        -0.00050378
  16         0.00000000
  17         0.00000000
  18         0.00000000
  19         0.00000000
  20         0.00392267
  21        -0.00000000
  22        -0.00000000
  23         0.00000000
  24        -0.00000000
  25         0.00681294
  26         0.00000000
  27        -0.00000000
  28        -0.00000000
  29        -0.00000000
  30         0.00000000
  31         0.00000000
  32         0.00203029
  33         0.01879670
  34         0.49092919
  35        -1.87056782
  36         1.53516702
  37        -0.00000000
  38         0.00000000
  39         0.00529939
  40         0.00000000
  41        -0.00000000
  42        -0.16273044
  43        -0.00000000
  44         0.00000000
  45         0.23002996
  46        -0.00050378
  47         0.00000000
  48         0.00000000
  49        -0.00000000
  50         0.00000000
  51         0.00392267
  52        -0.00000000
  53        -0.00000000
  54         0.00000000
  55        -0.00000000
  56        -0.00681294
  57        -0.00000000
  58        -0.00000000
  59        -0.00000000
  60         0.00000000
  61        -0.00000000
  62        -0.00000000
Sym=    12a  
Ene=     3.4340
Spin= Alpha
Occup=    0.00000
   1        -0.00145251
   2        -0.00334006
   3        -0.29232218
   4         0.79166023
   5         0.93543571
   6        -0.00000000
   7        -0.00000000
   8         0.00046219
   9         0.00000000
  10         0.00000000
  11        -0.52411602
  12        -0.00000000
  13        -0.00000000
  14         1.87377927
  15        -0.02135015
  16         0.00000000
  17         0.00000000
  18        -0.00000000
  19        -0.00000000
  20         0.17351225
  21        -0.00000000
  22        -0.00000000
  23         0.00000000
  24        -0.00000000
  25         0.01207886
  26        -0.00000000
  27         0.00000000
  28         0.00000000
  29         0.00000000
  30        -0.00000000
  31        -0.00000000
  32         0.00145251
  33         0.00334006
  34         0.29232218
  35        -0.79166023
  36        -0.93543571
  37        -0.00000000
  38        -0.00000000
  39         0.00046219
  40         0.00000000
  41        -0.00000000
  42        -0.52411602
  43        -0.00000000
  44         0.00000000
  45         1.87377927
  46         0.02135015
  47        -0.00000000
  48         0.00000000
  49        -0.00000000
  50         0.00000000
  51        -0.17351225
  52        -0.00000000
  53        -0.00000000
  54         0.00000000
  55         0.00000000
  56         0.01207886
  57        -0.00000000
  58         0.00000000
  59        -0.00000000
  60        -0.00000000
  61        -0.00000000
  62         0.00000000
Sym=    13a  
Ene=     3.4973
Spin= Alpha
Occup=    0.00000
   1        -0.00000000
   2        -0.00000000
   3        -0.00000000
   4         0.00000000
   5        -0.00000000
   6         0.00029932
   7        -0.02298815
   8        -0.00000000
   9        -0.00965839
  10         0.74178674
  11         0.00000000
  12         0.01850083
  13        -1.42090755
  14        -0.00000000
  15         0.00000000
  16        -0.00010411
  17         0.00799570
  18        -0.00000000
  19        -0.00000000
  20        -0.00000000
  21         0.00078724
  22        -0.06046167
  23        -0.00000000
  24         0.00000000
  25        -0.00000000
  26         0.00008013
  27        -0.00615455
  28        -0.00000000
  29         0.00000000
  30        -0.00000000
  31        -0.00000000
  32         0.00000000
  33         0.00000000
  34         0.00000000
  35        -0.00000000
  36         0.00000000
  37        -0.00029932
  38         0.02298815
  39         0.00000000
  40         0.00965839
  41        -0.74178674
  42        -0.00000000
  43        -0.01850083
  44         1.42090755
  45        -0.00000000
  46        -0.00000000
  47        -0.00010411
  48         0.00799570
  49         0.00000000
  50         0.00000000
  51         0.00000000
  52         0.00078724
  53        -0.06046167
  54         0.00000000
  55         0.00000000
  56        -0.00000000
  57        -0.00008013
  58         0.00615455
  59        -0.00000000
  60        -0.00000000
  61         0.00000000
  62         0.00000000
Sym=    14a  
Ene=     3.4973
Spin= Alpha
Occup=    0.00000
   1        -0.00000000
   2        -0.00000000
   3        -0.00000000
   4         0.00000000
   5        -0.00000000
   6        -0.02298815
   7        -0.00029932
   8         0.00000000
   9         0.74178674
  10         0.00965839
  11        -0.00000000
  12        -1.42090755
  13        -0.01850083
  14        -0.00000000
  15         0.00000000
  16         0.00799570
  17         0.00010411
  18        -0.00000000
  19        -0.00000000
  20        -0.00000000
  21        -0.06046167
  22        -0.00078724
  23         0.00000000
  24         0.00000000
  25        -0.00000000
  26        -0.00615455
  27        -0.00008013
  28        -0.00000000
  29        -0.00000000
  30         0.00000000
  31         0.00000000
  32         0.00000000
  33         0.00000000
  34         0.00000000
  35        -0.00000000
  36         0.00000000
  37         0.02298815
  38         0.00029932
  39        -0.00000000
  40        -0.74178674
  41        -0.00965839
  42         0.00000000
  43         1.42090755
  44         0.01850083
  45        -0.00000000
  46        -0.00000000
  47         0.00799570
  48         0.00010411
  49        -0.00000000
  50         0.00000000
  51         0.00000000
  52        -0.06046167
  53        -0.00078724
  54         0.00000000
  55        -0.00000000
  56        -0.00000000
  57         0.00615455
  58         0.00008013
  59        -0.00000000
  60         0.00000000
  61        -0.00000000
  62         0.00000000
Sym=    15a  
Ene=     3.5010
Spin= Alpha
Occup=    0.00000
   1        -0.00000000
   2         0.00000000
   3        -0.00000000
   4         0.00000000
   5         0.00000000
   6        -0.01680982
   7         0.02612419
   8        -0.00000000
   9         0.41967590
  10        -0.65221974
  11         0.00000000
  12        -0.47473476
  13         0.73778691
  14        -0.00000000
  15         0.00000000
  16        -0.00397668
  17         0.00618017
  18         0.00000000
  19        -0.00000000
  20        -0.00000000
  21         0.03196343
  22        -0.04967448
  23        -0.00000000
  24         0.00000000
  25        -0.00000000
  26        -0.00004440
  27         0.00006899
  28        -0.00000000
  29        -0.00000000
  30         0.00000000
  31        -0.00000000
  32        -0.00000000
  33        -0.00000000
  34        -0.00000000
  35         0.00000000
  36        -0.00000000
  37        -0.01680982
  38         0.02612419
  39         0.00000000
  40         0.41967590
  41        -0.65221974
  42        -0.00000000
  43        -0.47473476
  44         0.73778691
  45         0.00000000
  46         0.00000000
  47         0.00397668
  48        -0.00618017
  49         0.00000000
  50         0.00000000
  51        -0.00000000
  52        -0.03196343
  53         0.04967448
  54        -0.00000000
  55         0.00000000
  56         0.00000000
  57        -0.00004440
  58         0.00006899
  59         0.00000000
  60         0.00000000
  61        -0.00000000
  62         0.00000000
Sym=    16a  
Ene=     3.5010
Spin= Alpha
Occup=    0.00000
   1         0.00000000
   2         0.00000000
   3         0.00000000
   4        -0.00000000
   5         0.00000000
   6         0.02612419
   7         0.01680982
   8        -0.00000000
   9        -0.65221974
  10        -0.41967590
  11         0.00000000
  12         0.73778691
  13         0.47473476
  14         0.00000000
  15        -0.00000000
  16         0.00618017
  17         0.00397668
  18        -0.00000000
  19         0.00000000
  20         0.00000000
  21        -0.04967448
  22        -0.03196343
  23         0.00000000
  24        -0.00000000
  25        -0.00000000
  26         0.00006899
  27         0.00004440
  28         0.00000000
  29        -0.00000000
  30        -0.00000000
  31         0.00000000
  32        -0.00000000
  33        -0.00000000
  34        -0.00000000
  35         0.00000000
  36        -0.00000000
  37         0.02612419
  38         0.01680982
  39         0.00000000
  40        -0.65221974
  41        -0.41967590
  42        -0.00000000
  43         0.73778691
  44         0.47473476
  45         0.00000000
  46         0.00000000
  47        -0.00618017
  48        -0.00397668
  49        -0.00000000
  50         0.00000000
  51        -0.00000000
  52         0.04967448
  53         0.03196343
  54         0.00000000
  55        -0.00000000
  56         0.00000000
  57         0.00006899
  58         0.00004440
  59        -0.00000000
  60        -0.00000000
  61        -0.00000000
  62         0.00000000
Sym=    17a  
Ene=     3.5039
Spin= Alpha
Occup=    0.00000
   1         0.00161436
   2         0.01408237
   3         0.42793601
   4        -2.26428868
   5         5.74296472
   6        -0.00000000
   7        -0.00000000
   8        -0.00718877
   9         0.00000000
  10         0.00000000
  11        -0.10593371
  12        -0.00000000
  13        -0.00000000
  14         2.85250888
  15        -0.02248307
  16         0.00000000
  17         0.00000000
  18         0.00000000
  19         0.00000000
  20         0.19784101
  21        -0.00000000
  22        -0.00000000
  23         0.00000000
  24         0.00000000
  25         0.00879763
  26        -0.00000000
  27        -0.00000000
  28        -0.00000000
  29        -0.00000000
  30        -0.00000000
  31        -0.00000000
  32        -0.00161436
  33        -0.01408237
  34        -0.42793601
  35         2.26428868
  36        -5.74296472
  37         0.00000000
  38         0.00000000
  39        -0.00718877
  40        -0.00000000
  41        -0.00000000
  42        -0.10593371
  43         0.00000000
  44         0.00000000
  45         2.85250888
  46         0.02248307
  47         0.00000000
  48         0.00000000
  49        -0.00000000
  50         0.00000000
  51        -0.19784101
  52        -0.00000000
  53        -0.00000000
  54         0.00000000
  55        -0.00000000
  56         0.00879763
  57         0.00000000
  58         0.00000000
  59        -0.00000000
  60        -0.00000000
  61        -0.00000000
  62         0.00000000
Sym=    18a  
Ene=     3.5044
Spin= Alpha
Occup=    0.00000
   1        -0.00061481
   2         0.00009681
   3        -0.13896755
   4         0.67168334
   5        -0.22480517
   6         0.00000000
   7        -0.00000000
   8        -0.03019252
   9        -0.00000000
  10         0.00000000
  11         0.75573457
  12         0.00000000
  13        -0.00000000
  14        -1.12320121
  15         0.00588667
  16         0.00000000
  17        -0.00000000
  18        -0.00000000
  19         0.00000000
  20        -0.02208731
  21        -0.00000000
  22         0.00000000
  23         0.00000000
  24        -0.00000000
  25        -0.01836377
  26         0.00000000
  27         0.00000000
  28         0.00000000
  29         0.00000000
  30         0.00000000
  31         0.00000000
  32        -0.00061481
  33         0.00009681
  34        -0.13896755
  35         0.67168334
  36        -0.22480517
  37         0.00000000
  38        -0.00000000
  39         0.03019252
  40        -0.00000000
  41         0.00000000
  42        -0.75573457
  43         0.00000000
  44        -0.00000000
  45         1.12320121
  46         0.00588667
  47        -0.00000000
  48         0.00000000
  49        -0.00000000
  50         0.00000000
  51        -0.02208731
  52         0.00000000
  53        -0.00000000
  54         0.00000000
  55        -0.00000000
  56         0.01836377
  57         0.00000000
  58        -0.00000000
  59        -0.00000000
  60         0.00000000
  61        -0.00000000
  62        -0.00000000
Sym=    19a  
Ene=     4.0017
Spin= Alpha
Occup=    0.00000
   1         0.00000000
   2        -0.00000000
   3        -0.00000000
   4         0.00000000
   5        -0.00000000
   6        -0.00000000