HF file generated by AutoMR of MOKIT
Stability RHF                                                         Gen
Number of atoms                            I                2
Info1-9                                    I   N=           9
           6           5           0           0           0         110
           7           1           2
Charge                                     I                0
Multiplicity                               I                1
Number of electrons                        I               12
Number of alpha electrons                  I                6
Number of beta electrons                   I                6
Number of basis functions                  I               62
Number of independent functions            I               62
Number of point charges in /Mol/           I                0
Number of translation vectors              I                0
Atomic numbers                             I   N=           2
           6           6
Nuclear charges                            R   N=           2
  6.00000000E+00  6.00000000E+00
Current cartesian coordinates              R   N=           6
  0.00000000E+00  0.00000000E+00  0.00000000E+00  0.00000000E+00  0.00000000E+00
  3.77945227E+00
Force Field                                I                0
Int Atom Types                             I   N=           2
           0           0
MM charges                                 R   N=           2
  0.00000000E+00  0.00000000E+00
Integer atomic weights                     I   N=           2
          12          12
Real atomic weights                        R   N=           2
  1.20000000E+01  1.20000000E+01
Atom fragment info                         I   N=           2
           1           2
Atom residue num                           I   N=           2
           0           0
Nuclear spins                              I   N=           2
           0           0
Nuclear ZEff                               R   N=           2
 -3.60000000E+00 -3.60000000E+00
Nuclear QMom                               R   N=           2
  0.00000000E+00  0.00000000E+00
Nuclear GFac                               R   N=           2
  0.00000000E+00  0.00000000E+00
MicOpt                                     I   N=           2
          -1          -1
Number of contracted shells                I               22
Number of primitive shells                 I               40
Pure/Cartesian d shells                    I                0
Pure/Cartesian f shells                    I                0
Highest angular momentum                   I                3
Largest degree of contraction              I                6
Shell types                                I   N=          22
           0           0           0           0           0           1
           1           1          -2          -2          -3           0
           0           0           0           0           1           1
           1          -2          -2          -3
Number of primitives per shell             I   N=          22
           6           2           1           1           1           4
           1           1           1           1           1           6
           2           1           1           1           4           1
           1           1           1           1
Shell to atom map                          I   N=          22
           1           1           1           1           1           1
           1           1           1           1           1           2
           2           2           2           2           2           2
           2           2           2           2
Primitive exponents                        R   N=          40
  1.35753497E+04  2.03523337E+03  4.63225624E+02  1.31200196E+02  4.28530159E+01
  1.55841858E+01  6.20671385E+00  2.57648965E+00  5.76963394E-01  2.29728314E-01
  9.51644400E-02  3.46972322E+01  7.95826228E+00  2.37808269E+00  8.14332082E-01
  2.88875473E-01  1.00568237E-01  1.09700000E+00  3.18000000E-01  7.61000000E-01
  1.35753497E+04  2.03523337E+03  4.63225624E+02  1.31200196E+02  4.28530159E+01
  1.55841858E+01  6.20671385E+00  2.57648965E+00  5.76963394E-01  2.29728314E-01
  9.51644400E-02  3.46972322E+01  7.95826228E+00  2.37808269E+00  8.14332082E-01
  2.88875473E-01  1.00568237E-01  1.09700000E+00  3.18000000E-01  7.61000000E-01
Contraction coefficients                   R   N=          40
  6.06455036E-04  4.69790889E-03  2.43324776E-02  9.73999683E-02  3.01955843E-01
  6.62336091E-01  6.55953085E-01  3.75856333E-01  1.00000000E+00  1.00000000E+00
  1.00000000E+00  1.13272200E-02  7.61696592E-02  3.01922522E-01  7.27850273E-01
  1.00000000E+00  1.00000000E+00  1.00000000E+00  1.00000000E+00  1.00000000E+00
  6.06455036E-04  4.69790889E-03  2.43324776E-02  9.73999683E-02  3.01955843E-01
  6.62336091E-01  6.55953085E-01  3.75856333E-01  1.00000000E+00  1.00000000E+00
  1.00000000E+00  1.13272200E-02  7.61696592E-02  3.01922522E-01  7.27850273E-01
  1.00000000E+00  1.00000000E+00  1.00000000E+00  1.00000000E+00  1.00000000E+00
Coordinates of each shell                  R   N=          66
  0.00000000E+00  0.00000000E+00  0.00000000E+00  0.00000000E+00  0.00000000E+00
  0.00000000E+00  0.00000000E+00  0.00000000E+00  0.00000000E+00  0.00000000E+00
  0.00000000E+00  0.00000000E+00  0.00000000E+00  0.00000000E+00  0.00000000E+00
  0.00000000E+00  0.00000000E+00  0.00000000E+00  0.00000000E+00  0.00000000E+00
  0.00000000E+00  0.00000000E+00  0.00000000E+00  0.00000000E+00  0.00000000E+00
  0.00000000E+00  0.00000000E+00  0.00000000E+00  0.00000000E+00  0.00000000E+00
  0.00000000E+00  0.00000000E+00  0.00000000E+00  0.00000000E+00  0.00000000E+00
  3.77945227E+00  0.00000000E+00  0.00000000E+00  3.77945227E+00  0.00000000E+00
  0.00000000E+00  3.77945227E+00  0.00000000E+00  0.00000000E+00  3.77945227E+00
  0.00000000E+00  0.00000000E+00  3.77945227E+00  0.00000000E+00  0.00000000E+00
  3.77945227E+00  0.00000000E+00  0.00000000E+00  3.77945227E+00  0.00000000E+00
  0.00000000E+00  3.77945227E+00  0.00000000E+00  0.00000000E+00  3.77945227E+00
  0.00000000E+00  0.00000000E+00  3.77945227E+00  0.00000000E+00  0.00000000E+00
  3.77945227E+00
Constraint Structure                       R   N=           6
  0.00000000E+00  0.00000000E+00  0.00000000E+00  0.00000000E+00  0.00000000E+00
  3.77945227E+00
Num ILSW                                   I              100
ILSW                                       I   N=         100
           0           0           0           0           2           1
           0           0           0           0           0          -1
           0           0           0           0           0           0
           0           0           0           0           0           0
           1           1           0           0           0           0
           0           0      100000           0          -1           0
           0           0           0           0           0           0
           0           0           0           1           0           0
           0           0           1           0           0           0
           0           0           4          40           0           0
           0           0           0           0           0           0
           0           0           0           0           0           0
           0           0           0           0           0           0
           0           0           0           0           0           0
           0           0           0           0           0           0
           0           0           0           0           0           0
           0           0           0           0
Num RLSW                                   I               40
RLSW                                       R   N=          40
  1.00000000E+00  1.00000000E+00  1.00000000E+00  1.00000000E+00  1.00000000E+00
  0.00000000E+00  0.00000000E+00  1.00000000E+00  0.00000000E+00  0.00000000E+00
  0.00000000E+00  0.00000000E+00  1.00000000E+00  0.00000000E+00  0.00000000E+00
  0.00000000E+00  0.00000000E+00  1.00000000E+00  0.00000000E+00  0.00000000E+00
  0.00000000E+00  0.00000000E+00  1.00000000E+00  0.00000000E+00  0.00000000E+00
  0.00000000E+00  0.00000000E+00  1.00000000E+00  0.00000000E+00  0.00000000E+00
  0.00000000E+00  0.00000000E+00  1.00000000E+00  0.00000000E+00  0.00000000E+00
  0.00000000E+00  0.00000000E+00  0.00000000E+00  1.00000000E+00  1.00000000E+00
ECP-MxAtEC                                 I           250000
ECP-MaxLECP                                I               10
ECP-MaxAtL                                 I          2250000
ECP-MxTECP                                 I         11250000
ECP-LenNCZ                                 I                0
ECP-KFirst                                 I   N=          20
           0           0           0           0           0           0
           0           0           0           0           0           0
           0           0           0           0           0           0
           0           0
ECP-KLast                                  I   N=          20
           0           0           0           0           0           0
           0           0           0           0           0           0
           0           0           0           0           0           0
           0           0
ECP-LMax                                   I   N=           2
           0           0
ECP-LPSkip                                 I   N=           2
           1           1
ECP-RNFroz                                 R   N=           2
  0.00000000E+00  0.00000000E+00
ECP-NLP                                    I                0
ECP-CLP1                                   R      0.000000000000000E+00
ECP-CLP2                                   R      0.000000000000000E+00
ECP-ZLP                                    R      0.000000000000000E+00
MxBond                                     I                1
NBond                                      I   N=           2
           0           0
IBond                                      I   N=           2
           0           0
RBond                                      R   N=           2
  0.00000000E+00  0.00000000E+00
Virial Ratio                               R      2.002767418515293E+00
SCF Energy                                 R     -7.539833080752248E+01
Total Energy                               R     -7.539833080752248E+01
S**2                                       R      1.995806237313542E+00
S**2 after annihilation                    R      5.202194813231433E+00
RMS Density                                R      5.365533649607990E-09
External E-field                           R   N=          35
  0.00000000E+00  0.00000000E+00  0.00000000E+00  0.00000000E+00  0.00000000E+00
  0.00000000E+00  0.00000000E+00  0.00000000E+00  0.00000000E+00  0.00000000E+00
  0.00000000E+00  0.00000000E+00  0.00000000E+00  0.00000000E+00  0.00000000E+00
  0.00000000E+00  0.00000000E+00  0.00000000E+00  0.00000000E+00  0.00000000E+00
  0.00000000E+00  0.00000000E+00  0.00000000E+00  0.00000000E+00  0.00000000E+00
  0.00000000E+00  0.00000000E+00  0.00000000E+00  0.00000000E+00  0.00000000E+00
  0.00000000E+00  0.00000000E+00  0.00000000E+00  0.00000000E+00  0.00000000E+00
IOpCl                                      I                0
IROHF                                      I                0
Alpha Orbital Energies                     R   N=          62
  2.00000000E+00  2.00000000E+00  1.95028141E+00  1.95028122E+00  1.90969146E+00
  1.55827695E+00  4.41723048E-01  9.03085388E-02  4.97187839E-02  4.97185864E-02
  0.00000000E+00  0.00000000E+00  0.00000000E+00  0.00000000E+00  0.00000000E+00
  0.00000000E+00  0.00000000E+00  0.00000000E+00  0.00000000E+00  0.00000000E+00
  0.00000000E+00  0.00000000E+00  0.00000000E+00  0.00000000E+00  0.00000000E+00
  0.00000000E+00  0.00000000E+00  0.00000000E+00  0.00000000E+00  0.00000000E+00
  0.00000000E+00  0.00000000E+00  0.00000000E+00  0.00000000E+00  0.00000000E+00
  0.00000000E+00  0.00000000E+00  0.00000000E+00  0.00000000E+00  0.00000000E+00
  0.00000000E+00  0.00000000E+00  0.00000000E+00  0.00000000E+00  0.00000000E+00
  0.00000000E+00  0.00000000E+00  0.00000000E+00  0.00000000E+00  0.00000000E+00
  0.00000000E+00  0.00000000E+00  0.00000000E+00  0.00000000E+00  0.00000000E+00
  0.00000000E+00  0.00000000E+00  0.00000000E+00  0.00000000E+00  0.00000000E+00
  0.00000000E+00  0.00000000E+00
Alpha MO coefficients                      R   N=        3844
  3.36524588E-01  4.42089059E-01  7.41380821E-03 -8.66667973E-03 -3.59040609E-04
  1.83484216E-07  6.53019955E-07  1.56245678E-03 -9.13783663E-09 -7.42168865E-08
 -2.21602787E-04  1.14665274E-07  4.34379131E-07  8.18016180E-04  1.51379674E-04
  2.01859870E-08  9.65221331E-08  1.58447185E-04 -7.25162923E-05  7.99311007E-05
  3.41716350E-08  1.46696349E-07  1.35035291E-04 -6.18003249E-05 -4.69294568E-05
  8.56346313E-09  3.37334380E-08  2.88548064E-06 -1.32029482E-06 -8.26664418E-09
 -1.17370591E-08  3.27141383E-01  4.29763605E-01  7.18570511E-03 -8.35684347E-03
 -3.71382413E-04  2.11260053E-07  7.84699067E-07 -1.50350282E-03  1.91955716E-08
  4.59472347E-08  1.82437100E-04  8.77007450E-08  3.12026451E-07 -7.91689426E-04
  1.45526363E-04 -3.70859393E-08 -1.76981435E-07  1.54057951E-04 -7.04836909E-05
  9.80504867E-05 -3.99331755E-08 -1.68709198E-07  1.30588896E-04 -5.97471923E-05
  4.19225982E-05  1.75524568E-09 -2.53555943E-09 -2.87253351E-06  1.31511120E-06
 -1.06853153E-09 -1.01533237E-09 -3.27180408E-01 -4.29778596E-01 -7.93761984E-03
  1.08697888E-02 -4.25232068E-04 -1.43070701E-07 -5.39910598E-07 -2.06745345E-03
  6.12780942E-08  2.47061441E-07  1.37806557E-03 -8.79540212E-08 -3.48047616E-07
 -9.20809379E-04 -2.05227608E-04 -2.10479271E-08 -1.01060546E-07 -1.52382414E-04
  6.97413467E-05  6.41184492E-04 -2.61441627E-08 -1.20717766E-07 -1.55839277E-04
  7.13188257E-05  1.76162749E-04  1.66129613E-10 -9.42811580E-10 -4.49874147E-07
  2.04383197E-07  7.54554605E-09  8.60359104E-09  3.36562636E-01  4.42103884E-01
  8.14428048E-03 -1.11100219E-02  4.15117821E-04  1.77063431E-07  6.91351350E-07
 -2.11021962E-03 -3.61046349E-08 -1.25470505E-07  1.38436258E-03  6.68182728E-08
  2.46453777E-07 -9.43301942E-04  2.09428011E-04 -3.06295510E-08 -1.46341027E-07
  1.56797541E-04 -7.17362224E-05 -6.38710700E-04 -2.75540521E-08 -1.26423980E-07
  1.59601331E-04 -7.30237287E-05  1.77420075E-04 -6.33139094E-09 -2.52369819E-08
 -5.34585378E-07  2.46033077E-07  5.26369174E-09  7.44853713E-09 -1.00447561E-01
 -2.32229854E-01  4.08799180E-01  5.26016866E-01  1.87672081E-01 -8.43438778E-06
 -3.24068236E-05 -1.01548277E-01 -7.34351206E-06 -2.77578098E-05 -9.50040363E-02
 -6.81519045E-06 -2.57007804E-05 -5.93585698E-02 -3.57647977E-03 -6.33758975E-07
 -2.67962431E-06 -3.34940681E-03  1.53300215E-03 -7.47862025E-03 -1.66524365E-06
 -6.78223373E-06 -4.33170080E-03  1.98253550E-03  2.03998204E-03  4.16795502E-07
  1.87719814E-06  1.65412955E-03 -7.57079124E-04  6.84244536E-07  8.35164242E-07
  2.85193951E-03  6.79969180E-03 -1.47184926E-02 -2.68532506E-02 -1.22627336E-02
 -2.87703445E-06 -1.12171359E-05  6.62367261E-03 -2.58629388E-06 -1.01090713E-05
  8.28804870E-03 -2.96149533E-06 -1.10475140E-05  2.48448486E-02  2.99501799E-03
  4.61339640E-08  1.51322207E-07  1.56559270E-04 -7.16312598E-05  5.40239089E-03
 -6.03980101E-08 -5.51645311E-07  1.98255973E-03 -9.07254415E-04 -1.79407219E-03
  1.45231672E-07  6.56124821E-07 -4.05783652E-04  1.85688494E-04  1.45337819E-07
  1.77133144E-07  2.85351917E-03  6.80242512E-03 -1.47207447E-02 -2.68583926E-02
 -1.22630494E-02 -3.40100090E-06 -1.35362294E-05 -6.62383421E-03 -3.21172772E-06
 -1.29053066E-05 -8.28776194E-03 -3.56324123E-06 -1.37477583E-05 -2.48456695E-02
  2.99479839E-03 -4.43487920E-08 -1.42629980E-07  1.56499237E-04 -7.16240673E-05
  5.40180800E-03  4.01938443E-08  4.60773905E-07  1.98261161E-03 -9.07177198E-04
  1.79404997E-03  1.24207588E-07  5.59192130E-07  4.05816509E-04 -1.85692137E-04
  9.25535839E-08  1.06975962E-07 -1.00447352E-01 -2.32229668E-01  4.08799961E-01
  5.26016882E-01  1.87672160E-01 -7.78225901E-06 -2.94527133E-05  1.01548700E-01
 -7.73227165E-06 -2.95704365E-05  9.50050624E-02 -6.46213954E-06 -2.41224010E-05
  5.93580248E-02 -3.57645855E-03  9.54429774E-07  4.15257300E-06 -3.34963039E-03
  1.53241599E-03 -7.47861736E-03  1.87439790E-06  7.73419212E-06 -4.33231963E-03
  1.98203678E-03 -2.04000852E-03  5.86592698E-07  2.65947142E-06 -1.65424266E-03
  7.56800492E-04  4.77448628E-07  5.60513602E-07  1.37056799E-02  3.03219648E-02
 -4.14214758E-02 -6.91334864E-02  7.26471119E-02 -2.32422080E-05 -7.44988041E-05
 -2.97375606E-01 -2.24101441E-05 -7.07793681E-05 -2.94270766E-01 -1.81126584E-05
 -6.11204136E-05 -1.37254434E-01 -1.19764881E-02 -1.55894218E-06 -5.75854624E-06
 -4.88254245E-04  2.23443311E-04 -2.98973187E-02 -4.78978750E-06 -1.69979052E-05
 -1.85854542E-03  8.50596011E-04 -2.73793912E-03  1.30778223E-07  1.27408735E-06
  2.44248161E-03 -1.11779080E-03  6.85260955E-07  7.87788478E-07  1.37054679E-02
  3.03220215E-02 -4.14231888E-02 -6.91343600E-02  7.26477466E-02 -2.26209793E-05
 -7.17142411E-05  2.97376722E-01 -2.20925546E-05 -6.94580599E-05  2.94271694E-01
 -1.53614097E-05 -4.86318998E-05  1.37252075E-01 -1.19766619E-02  1.30403147E-06
  4.59444147E-06 -4.88236313E-04  2.23392609E-04 -2.98975204E-02  4.30997168E-06
  1.47604570E-05 -1.85864028E-03  8.50329431E-04  2.73801989E-03  9.79097168E-08
  1.13715979E-06 -2.44256654E-03  1.11756426E-03  6.49256779E-07  7.42445185E-07
 -1.85774756E-08 -3.49121377E-08  4.90505479E-08  4.39049350E-07  1.79188754E-06
  2.94758768E-01 -6.42524653E-02 -7.99504799E-06  2.90989116E-01 -6.34310454E-02
 -7.45030707E-06  1.74093024E-01 -3.79425023E-02 -2.84158192E-06 -2.11068489E-07
  4.96997816E-03 -1.08196068E-03  3.71355866E-07  8.56355570E-07 -4.63576190E-07
  2.10672369E-02 -4.58939968E-03  9.80194052E-07  1.80899715E-06  3.93490794E-08
  2.00280360E-04 -4.36909479E-05 -8.50135772E-07 -1.73313537E-06 -9.37683544E-04
  7.03302090E-04 -1.60386320E-08 -3.12342042E-08  4.44505474E-08  3.88010430E-07
  1.86759984E-06  2.94766150E-01 -6.42211761E-02  8.03518429E-06  2.90996303E-01
 -6.33995929E-02  7.43354397E-06  1.74093013E-01 -3.79375071E-02  2.86889812E-06
 -2.18323900E-07 -4.96957667E-03  1.08432375E-03  5.27615565E-07  1.18427625E-06
 -4.71342660E-07 -2.10666074E-02  4.59318747E-03  1.12532340E-06  2.03635780E-06
 -3.43672923E-08  2.00300625E-04 -4.36308547E-05  7.58013837E-07  1.53319455E-06
 -9.37370172E-04  7.03664436E-04 -3.14187560E-07 -7.08953370E-07  8.38247301E-07
  3.36131809E-06  3.14273486E-06 -3.54807752E-01  7.73262067E-02  6.29905632E-06
 -3.52689703E-01  7.68671905E-02  8.15400431E-06 -1.72863348E-01  3.76819149E-02
  3.76634149E-06 -2.88016046E-07 -1.04928932E-03  2.31306707E-04 -4.48317534E-07
 -7.52710220E-07 -2.75473306E-07 -9.11497077E-03  1.99295562E-03 -9.29041612E-07
 -2.08347797E-06 -5.17318444E-07  5.75247064E-03 -1.25326396E-03  1.16936566E-06
  1.83343544E-06 -1.75793362E-03  1.31877100E-03  3.18067371E-07  7.32250574E-07
 -9.57028409E-07 -3.20374800E-06 -3.19746985E-06  3.54808034E-01 -7.73207157E-02
  6.26692325E-06  3.52691448E-01 -7.68567593E-02  8.07005170E-06  1.72868570E-01
 -3.76626877E-02  3.85582018E-06  2.79158170E-07 -1.05047274E-03  2.26119545E-04
  7.29748088E-07  1.32075815E-06  2.25432200E-07 -9.11800175E-03  1.98026617E-03
  1.17590053E-06  2.68779361E-06 -5.33129052E-07 -5.75229259E-03  1.25393864E-03
  1.10398609E-06  1.71083737E-06  1.75761135E-03 -1.31914826E-03 -3.14949517E-02
 -7.43980756E-02  1.47188776E-01  2.22855915E-01  5.42022666E-02  3.87989762E-05
  1.44350236E-04  4.50072519E-01  3.42245024E-05  1.27227522E-04  4.34525363E-01
  5.36575073E-06  2.24531070E-05  1.11071525E-01  2.33973287E-02  4.65686866E-06
  1.65543940E-05 -1.65128355E-04  7.55792985E-05  4.83890434E-02  6.18346321E-06
  2.20191730E-05  7.15070017E-04 -3.27468751E-04  1.56195804E-02  3.37823134E-06
  1.09687378E-05 -2.90601837E-03  1.32990957E-03 -6.83252586E-07 -6.18788758E-07
  3.14949352E-02  7.43980546E-02 -1.47189045E-01 -2.22856309E-01 -5.42015627E-02
 -3.51548591E-05 -1.26785261E-04  4.50071507E-01 -3.07291267E-05 -1.11264227E-04
  4.34525349E-01 -6.86527313E-06 -2.98724480E-05  1.11070962E-01 -2.33973820E-02
  4.02189230E-06  1.33831487E-05  1.65250002E-04 -7.56882018E-05 -4.83886507E-02
  6.06577300E-06  2.15737768E-05 -7.15758969E-04  3.27168756E-04  1.56194227E-02
 -2.61950910E-06 -7.34568569E-06 -2.90616316E-03  1.32971107E-03  1.11149392E-06
  1.28629336E-06 -6.37550265E-06 -1.41029241E-05  2.09861779E-05  4.20029247E-05
  1.85401818E-05 -1.51104949E-03 -6.89930104E-03  1.45746066E-05 -2.43775191E-03
 -1.11565119E-02  3.29537634E-05 -7.83010513E-04 -3.58872324E-03  1.63719738E-05
 -2.52061839E-06  5.10759149E-04  2.34483297E-03 -6.92298456E-08  9.06071501E-08
  9.71522347E-06  3.86681267E-04  1.77370949E-03 -2.19724138E-07  1.84890425E-07
  1.58858957E-06  1.04950762E-04  4.80640539E-04  2.62034395E-07 -8.03061487E-08
  5.87098477E-05  7.86022085E-05 -3.31841012E-06 -7.22847007E-06  4.03006513E-05
 -2.86480442E-05 -3.30535923E-05  1.09852781E-01  5.04157505E-01  1.66620929E-04
  1.21459184E-01  5.57422079E-01  1.95175216E-04  5.07400610E-03  2.32762183E-02
 -1.73098942E-05  4.00548408E-05  1.15291239E-02  5.29142693E-02  1.56091714E-05
 -8.32128866E-06  5.26147700E-05  1.83077629E-02  8.40291794E-02  2.17614478E-05
 -1.21395197E-05  9.34517553E-06  1.83204867E-03  8.40870362E-03  6.37712614E-07
 -3.87563050E-07  1.86937644E-03  2.49217112E-03  3.32854909E-06  6.74373025E-06
 -2.80917943E-05  1.65150081E-06 -2.70317132E-05  1.09886655E-01  5.04149382E-01
 -1.63237373E-04  1.21496252E-01  5.57415538E-01 -1.97887937E-04  5.07084896E-03
  2.32740549E-02 -3.69195508E-05  3.01265042E-05 -1.15338823E-02 -5.29134050E-02
  1.59655365E-05 -8.51708900E-06  4.41673005E-05 -1.83165063E-02 -8.40270299E-02
  3.65952914E-05 -1.88917940E-05 -8.04004008E-06  1.83297906E-03  8.40877916E-03
 -8.37631009E-06  3.89987278E-06  1.87014761E-03  2.49158149E-03 -7.57326378E-06
 -1.67189803E-05  2.08807496E-05  6.62180792E-05  3.37223223E-05 -1.49779066E-03
 -6.90139223E-03 -2.34247751E-05 -2.42599037E-03 -1.11572046E-02 -3.99106262E-05
 -7.80790712E-04 -3.58447978E-03 -3.24898835E-05 -2.32956720E-06 -5.11217861E-04
 -2.34517421E-03 -2.79489134E-07  1.98836369E-07  7.99505523E-06 -3.86499482E-04
 -1.77406052E-03  5.76442634E-07 -2.06379450E-07 -1.51523391E-06  1.04497937E-04
  4.80300143E-04  5.50015474E-07 -3.13309643E-07  5.89463042E-05  7.82241901E-05
 -3.49857634E-02 -6.55894230E-02 -1.13112996E-01  1.44940864E+00 -1.36471769E+00
  2.62664896E-06  1.18750672E-05 -3.80540619E-02  2.03986814E-05  9.17882048E-05
 -4.72565735E-02 -3.45742543E-05 -1.55086350E-04  5.06431745E-02  3.96476278E-03
 -6.04040192E-07 -2.67050490E-06 -2.52133751E-03  1.15391599E-03  1.07195738E-02
 -6.46319437E-07 -2.84366486E-06  3.30539417E-03 -1.51262197E-03 -3.30256111E-03
  7.73425017E-08  3.57377797E-07  2.86989823E-04 -1.31362290E-04 -7.88228129E-09
 -1.10290184E-08 -3.49854800E-02 -6.55888543E-02 -1.13112743E-01  1.44939908E+00
 -1.36471012E+00  1.13982684E-06  5.04211783E-06  3.80533367E-02  2.08144414E-05
  9.37785144E-05  4.72541526E-02 -4.41751838E-05 -1.99496457E-04 -5.06358941E-02
  3.96486023E-03  5.36422249E-07  2.35953925E-06 -2.52145287E-03  1.15361363E-03
  1.07190154E-02  9.06905493E-07  4.05245187E-06  3.30541830E-03 -1.51241517E-03
  3.30261624E-03  8.72273821E-08  4.02768325E-07 -2.87014600E-04  1.31295060E-04
  5.45651427E-08  7.24518270E-08 -3.25876860E-05 -6.04171020E-05 -1.11293225E-04
  1.24305024E-03 -5.72141389E-04 -2.06321819E-02 -9.46867998E-02 -1.15779726E-04
 -1.09988047E-01 -5.04675748E-01 -2.68366008E-04  1.73510037E-01  7.96049779E-01
  9.17046734E-04 -1.20655624E-05  6.34068822E-04  2.91020025E-03 -1.57132879E-06
  7.24345907E-07  6.40648858E-05 -3.79043166E-04 -1.74436840E-03 -7.13661432E-06
  3.87392834E-06  5.80722418E-06 -2.70091128E-04 -1.23946792E-03  5.91816609E-07
 -2.59364924E-07  4.21664299E-04  5.61940849E-04  1.35641403E-05  2.38257819E-05
  6.40136839E-05 -5.00296621E-04 -2.86377508E-05 -2.06369524E-02 -9.46835890E-02
 -7.13362423E-05 -1.09977651E-01 -5.04671287E-01 -3.12065488E-04  1.73453904E-01
  7.96047282E-01  1.11458507E-03  1.36642614E-05 -6.34379855E-04 -2.91023103E-03
  8.68981391E-07 -3.93363860E-07 -8.46732847E-05  3.81270507E-04  1.74442739E-03
 -8.77090512E-06  4.62836798E-06  8.51898858E-06 -2.70146185E-04 -1.23948647E-03
  8.88223101E-07 -4.15636390E-07  4.21637760E-04  5.61946362E-04 -2.47592580E-02
 -4.49612016E-02 -9.87865135E-02  9.48455326E-01 -2.92906624E-01  2.06681236E-05
  9.54315429E-05 -1.03553993E-01  1.14195298E-04  5.28226700E-04 -3.18955924E-01
 -1.89485661E-04 -8.83828883E-04  1.10459849E+00 -1.41665103E-02 -9.33322268E-07
 -3.90932276E-06 -1.35975313E-03  6.22313059E-04  8.09740050E-02 -1.48170288E-06
 -6.30790329E-06  2.33648700E-03 -1.06929885E-03  7.92542844E-03  2.32823227E-07
  1.14872495E-06  6.76412263E-04 -3.09579259E-04 -3.93339201E-07 -5.36114619E-07
  2.47595228E-02  4.49616241E-02  9.87886639E-02 -9.48471417E-01  2.92920221E-01
  2.03595437E-05  9.24371229E-05 -1.03553121E-01  9.41138703E-05  4.26241862E-04
 -3.18953175E-01 -1.31051511E-04 -5.84978396E-04  1.10459405E+00  1.41663715E-02
  2.11239604E-07  1.34370466E-06  1.35985088E-03 -6.22147814E-04 -8.09742834E-02
 -2.99727475E-06 -1.31658993E-05 -2.33651795E-03  1.06903882E-03  7.92536453E-03
  2.47162494E-07  1.04389592E-06  6.76451970E-04 -3.09478249E-04 -5.20695702E-07
 -6.84150057E-07 -6.22689729E-08 -1.23862325E-07 -1.00629937E-07  2.49698143E-06
 -1.24012521E-06 -1.58347820E-01  3.44984172E-02  1.64751400E-08 -5.86230176E-01
  1.27680810E-01  1.19500437E-06  7.80722737E-01 -1.69937467E-01 -2.74674447E-06
  4.20956990E-08  4.36747775E-04 -9.66083361E-05 -4.67550593E-07 -9.53644051E-07
  1.10450836E-08 -4.75175302E-02  1.03620036E-02 -6.05604873E-08 -1.03959239E-07
 -3.11316381E-08 -2.15635730E-03  4.70552047E-04  4.25467138E-07  9.00911791E-07
  1.39220869E-03 -1.04471623E-03 -5.37715004E-08 -1.12284520E-07  1.09473802E-09
  1.86902854E-06 -6.62573466E-07 -1.58341681E-01  3.45172951E-02 -1.64989258E-07
 -5.86190592E-01  1.27823420E-01 -1.48037219E-06  7.80616110E-01 -1.70323301E-01
  3.13738942E-06  4.71683437E-08 -4.37537725E-04  9.39221344E-05 -4.55462679E-07
 -9.31046347E-07 -3.89774144E-08  4.75205940E-02 -1.03495845E-02 -9.38071256E-08
 -1.66090070E-07  3.71875152E-08 -2.15667341E-03  4.69383809E-04 -4.02155922E-07
 -8.53759997E-07  1.39227442E-03 -1.04460543E-03 -3.80069547E-07 -1.16211082E-06
  1.48289075E-05 -1.55205359E-04  6.03279626E-04 -1.96710871E-02 -9.03773612E-02
 -3.11757129E-05 -1.12244518E-01 -5.15474082E-01 -1.28561235E-04  2.83527125E-01
  1.30157205E+00  6.02703855E-04 -8.40089876E-06 -2.06318888E-03 -9.46743695E-03
  9.50955118E-07 -4.28327455E-07  1.27113432E-05  8.46711280E-03  3.88104624E-02
 -1.06911411E-05  5.37273810E-06  2.73790429E-06  9.21884626E-04  4.22851300E-03
  1.95917824E-07 -9.16863796E-08  4.07886298E-04  5.43982113E-04  9.84564798E-07
  1.42402664E-06  8.24596687E-06  1.34593684E-05 -5.59574541E-04  1.97187708E-02
  9.03690376E-02 -9.82415821E-07  1.12421758E-01  5.15443594E-01  3.09608069E-05
 -2.83762591E-01 -1.30153023E+00  3.26105808E-04  3.64978840E-06 -2.06324819E-03
 -9.46740447E-03 -4.89756649E-07  2.17295900E-07 -1.97900160E-05  8.44957501E-03
  3.88144216E-02  6.59857818E-06 -3.49863259E-06  7.71429302E-07 -9.21169072E-04
 -4.22864036E-03 -2.71988100E-07  1.22531205E-07 -4.08265188E-04 -5.43719347E-04
 -1.08417784E-03 -4.00841421E-03  4.82641753E-02 -3.10792116E-01 -2.85603733E-02
 -3.13027837E-07  1.34359604E-06 -1.04737135E-01  3.12150051E-06  2.26081866E-05
 -5.95487084E-01 -2.08823019E-05 -1.04426209E-04  1.04825009E+00 -1.80525318E-02
  2.01456341E-08  2.17364241E-07  9.28164586E-04 -4.24758432E-04 -3.08531453E-02
 -3.01402522E-06 -1.26126511E-05 -2.51383186E-03  1.15028461E-03  7.17333017E-03
 -7.13939947E-08 -2.42344814E-07  8.30639208E-04 -3.80149640E-04  4.24768984E-08
  4.18343937E-08 -1.08435918E-03 -4.00872926E-03  4.82631428E-02 -3.10781991E-01
 -2.85787246E-02 -6.99052199E-06 -2.91769479E-05  1.04737351E-01 -2.92058783E-05
 -1.24895851E-04  5.95488433E-01  5.50407922E-05  2.41708470E-04 -1.04824623E+00
 -1.80524911E-02  5.26098065E-07  2.27454298E-06  9.28182172E-04 -4.24687126E-04
 -3.08529316E-02  7.55652946E-07  2.27739293E-06 -2.51377672E-03  1.15029706E-03
 -7.17336115E-03  2.04127649E-07  1.01538677E-06 -8.30686218E-04  3.80057009E-04
  2.06974839E-07  2.60894440E-07 -1.29795599E-07 -1.89204550E-07 -1.57782417E-06
  1.46662835E-05 -4.21287321E-05  1.25441661E-01 -2.73398447E-02 -9.68981749E-07
  5.51456607E-01 -1.20189456E-01 -1.04293187E-06 -1.28463475E+00  2.79974275E-01
 -2.06187792E-05  2.28033120E-07  1.09241550E-02 -2.38075274E-03  4.98526788E-07
  1.08629412E-06 -6.10249385E-07 -2.33808464E-02  5.09273371E-03 -6.83736794E-07
 -1.63470421E-06 -1.22351660E-08 -4.75864751E-03  1.03697303E-03 -2.73445101E-07
 -5.87562623E-07 -9.04528503E-04  6.78860672E-04  1.31477368E-07  1.92431524E-07
  1.57585816E-06 -1.46407383E-05  4.22083143E-05 -1.25444656E-01  2.73354433E-02
 -1.01432546E-06 -5.51471372E-01  1.20169845E-01 -1.26243570E-06  1.28465488E+00
 -2.79946732E-01 -2.02453571E-05 -2.21652661E-07  1.09241700E-02 -2.38061751E-03
 -4.87497030E-07 -1.06200932E-06  6.29531640E-07 -2.33790274E-02  5.09755859E-03
  5.50153762E-07  1.33385309E-06 -9.16728683E-09  4.75857168E-03 -1.03709870E-03
 -2.55635562E-07 -5.50292413E-07  9.04696849E-04 -6.78679591E-04 -1.95094576E-02
 -3.49905276E-02 -1.22662554E-01  1.65075488E+00 -5.35295432E+00 -6.16931598E-06
 -2.12951465E-05  3.40339454E-02 -2.32930024E-05 -8.21933639E-05  1.38322174E-01
  4.50132367E-05  1.57584788E-04 -2.99210144E+00  3.09950646E-02 -2.89970389E-07