HF file generated by AutoMR of MOKIT
Stability RHF                                                         Gen
Number of atoms                            I                2
Info1-9                                    I   N=           9
           6           5           0           0           0         110
           7           1           2
Charge                                     I                0
Multiplicity                               I                1
Number of electrons                        I               12
Number of alpha electrons                  I                6
Number of beta electrons                   I                6
Number of basis functions                  I               62
Number of independent functions            I               62
Number of point charges in /Mol/           I                0
Number of translation vectors              I                0
Atomic numbers                             I   N=           2
           6           6
Nuclear charges                            R   N=           2
  6.00000000E+00  6.00000000E+00
Current cartesian coordinates              R   N=           6
  0.00000000E+00  0.00000000E+00  0.00000000E+00  0.00000000E+00  0.00000000E+00
  3.77945227E+00
Force Field                                I                0
Int Atom Types                             I   N=           2
           0           0
MM charges                                 R   N=           2
  0.00000000E+00  0.00000000E+00
Integer atomic weights                     I   N=           2
          12          12
Real atomic weights                        R   N=           2
  1.20000000E+01  1.20000000E+01
Atom fragment info                         I   N=           2
           1           2
Atom residue num                           I   N=           2
           0           0
Nuclear spins                              I   N=           2
           0           0
Nuclear ZEff                               R   N=           2
 -3.60000000E+00 -3.60000000E+00
Nuclear QMom                               R   N=           2
  0.00000000E+00  0.00000000E+00
Nuclear GFac                               R   N=           2
  0.00000000E+00  0.00000000E+00
MicOpt                                     I   N=           2
          -1          -1
Number of contracted shells                I               22
Number of primitive shells                 I               40
Pure/Cartesian d shells                    I                0
Pure/Cartesian f shells                    I                0
Highest angular momentum                   I                3
Largest degree of contraction              I                6
Shell types                                I   N=          22
           0           0           0           0           0           1
           1           1          -2          -2          -3           0
           0           0           0           0           1           1
           1          -2          -2          -3
Number of primitives per shell             I   N=          22
           6           2           1           1           1           4
           1           1           1           1           1           6
           2           1           1           1           4           1
           1           1           1           1
Shell to atom map                          I   N=          22
           1           1           1           1           1           1
           1           1           1           1           1           2
           2           2           2           2           2           2
           2           2           2           2
Primitive exponents                        R   N=          40
  1.35753497E+04  2.03523337E+03  4.63225624E+02  1.31200196E+02  4.28530159E+01
  1.55841858E+01  6.20671385E+00  2.57648965E+00  5.76963394E-01  2.29728314E-01
  9.51644400E-02  3.46972322E+01  7.95826228E+00  2.37808269E+00  8.14332082E-01
  2.88875473E-01  1.00568237E-01  1.09700000E+00  3.18000000E-01  7.61000000E-01
  1.35753497E+04  2.03523337E+03  4.63225624E+02  1.31200196E+02  4.28530159E+01
  1.55841858E+01  6.20671385E+00  2.57648965E+00  5.76963394E-01  2.29728314E-01
  9.51644400E-02  3.46972322E+01  7.95826228E+00  2.37808269E+00  8.14332082E-01
  2.88875473E-01  1.00568237E-01  1.09700000E+00  3.18000000E-01  7.61000000E-01
Contraction coefficients                   R   N=          40
  6.06455036E-04  4.69790889E-03  2.43324776E-02  9.73999683E-02  3.01955843E-01
  6.62336091E-01  6.55953085E-01  3.75856333E-01  1.00000000E+00  1.00000000E+00
  1.00000000E+00  1.13272200E-02  7.61696592E-02  3.01922522E-01  7.27850273E-01
  1.00000000E+00  1.00000000E+00  1.00000000E+00  1.00000000E+00  1.00000000E+00
  6.06455036E-04  4.69790889E-03  2.43324776E-02  9.73999683E-02  3.01955843E-01
  6.62336091E-01  6.55953085E-01  3.75856333E-01  1.00000000E+00  1.00000000E+00
  1.00000000E+00  1.13272200E-02  7.61696592E-02  3.01922522E-01  7.27850273E-01
  1.00000000E+00  1.00000000E+00  1.00000000E+00  1.00000000E+00  1.00000000E+00
Coordinates of each shell                  R   N=          66
  0.00000000E+00  0.00000000E+00  0.00000000E+00  0.00000000E+00  0.00000000E+00
  0.00000000E+00  0.00000000E+00  0.00000000E+00  0.00000000E+00  0.00000000E+00
  0.00000000E+00  0.00000000E+00  0.00000000E+00  0.00000000E+00  0.00000000E+00
  0.00000000E+00  0.00000000E+00  0.00000000E+00  0.00000000E+00  0.00000000E+00
  0.00000000E+00  0.00000000E+00  0.00000000E+00  0.00000000E+00  0.00000000E+00
  0.00000000E+00  0.00000000E+00  0.00000000E+00  0.00000000E+00  0.00000000E+00
  0.00000000E+00  0.00000000E+00  0.00000000E+00  0.00000000E+00  0.00000000E+00
  3.77945227E+00  0.00000000E+00  0.00000000E+00  3.77945227E+00  0.00000000E+00
  0.00000000E+00  3.77945227E+00  0.00000000E+00  0.00000000E+00  3.77945227E+00
  0.00000000E+00  0.00000000E+00  3.77945227E+00  0.00000000E+00  0.00000000E+00
  3.77945227E+00  0.00000000E+00  0.00000000E+00  3.77945227E+00  0.00000000E+00
  0.00000000E+00  3.77945227E+00  0.00000000E+00  0.00000000E+00  3.77945227E+00
  0.00000000E+00  0.00000000E+00  3.77945227E+00  0.00000000E+00  0.00000000E+00
  3.77945227E+00
Constraint Structure                       R   N=           6
  0.00000000E+00  0.00000000E+00  0.00000000E+00  0.00000000E+00  0.00000000E+00
  3.77945227E+00
Num ILSW                                   I              100
ILSW                                       I   N=         100
           0           0           0           0           2           1
           0           0           0           0           0          -1
           0           0           0           0           0           0
           0           0           0           0           0           0
           1           1           0           0           0           0
           0           0      100000           0          -1           0
           0           0           0           0           0           0
           0           0           0           1           0           0
           0           0           1           0           0           0
           0           0           4          40           0           0
           0           0           0           0           0           0
           0           0           0           0           0           0
           0           0           0           0           0           0
           0           0           0           0           0           0
           0           0           0           0           0           0
           0           0           0           0           0           0
           0           0           0           0
Num RLSW                                   I               40
RLSW                                       R   N=          40
  1.00000000E+00  1.00000000E+00  1.00000000E+00  1.00000000E+00  1.00000000E+00
  0.00000000E+00  0.00000000E+00  1.00000000E+00  0.00000000E+00  0.00000000E+00
  0.00000000E+00  0.00000000E+00  1.00000000E+00  0.00000000E+00  0.00000000E+00
  0.00000000E+00  0.00000000E+00  1.00000000E+00  0.00000000E+00  0.00000000E+00
  0.00000000E+00  0.00000000E+00  1.00000000E+00  0.00000000E+00  0.00000000E+00
  0.00000000E+00  0.00000000E+00  1.00000000E+00  0.00000000E+00  0.00000000E+00
  0.00000000E+00  0.00000000E+00  1.00000000E+00  0.00000000E+00  0.00000000E+00
  0.00000000E+00  0.00000000E+00  0.00000000E+00  1.00000000E+00  1.00000000E+00
ECP-MxAtEC                                 I           250000
ECP-MaxLECP                                I               10
ECP-MaxAtL                                 I          2250000
ECP-MxTECP                                 I         11250000
ECP-LenNCZ                                 I                0
ECP-KFirst                                 I   N=          20
           0           0           0           0           0           0
           0           0           0           0           0           0
           0           0           0           0           0           0
           0           0
ECP-KLast                                  I   N=          20
           0           0           0           0           0           0
           0           0           0           0           0           0
           0           0           0           0           0           0
           0           0
ECP-LMax                                   I   N=           2
           0           0
ECP-LPSkip                                 I   N=           2
           1           1
ECP-RNFroz                                 R   N=           2
  0.00000000E+00  0.00000000E+00
ECP-NLP                                    I                0
ECP-CLP1                                   R      0.000000000000000E+00
ECP-CLP2                                   R      0.000000000000000E+00
ECP-ZLP                                    R      0.000000000000000E+00
MxBond                                     I                1
NBond                                      I   N=           2
           0           0
IBond                                      I   N=           2
           0           0
RBond                                      R   N=           2
  0.00000000E+00  0.00000000E+00
Virial Ratio                               R      2.002767418515293E+00
SCF Energy                                 R     -7.539833080752248E+01
Total Energy                               R     -7.539833080752248E+01
S**2                                       R      1.995806237313542E+00
S**2 after annihilation                    R      5.202194813231433E+00
RMS Density                                R      5.365533649607990E-09
External E-field                           R   N=          35
  0.00000000E+00  0.00000000E+00  0.00000000E+00  0.00000000E+00  0.00000000E+00
  0.00000000E+00  0.00000000E+00  0.00000000E+00  0.00000000E+00  0.00000000E+00
  0.00000000E+00  0.00000000E+00  0.00000000E+00  0.00000000E+00  0.00000000E+00
  0.00000000E+00  0.00000000E+00  0.00000000E+00  0.00000000E+00  0.00000000E+00
  0.00000000E+00  0.00000000E+00  0.00000000E+00  0.00000000E+00  0.00000000E+00
  0.00000000E+00  0.00000000E+00  0.00000000E+00  0.00000000E+00  0.00000000E+00
  0.00000000E+00  0.00000000E+00  0.00000000E+00  0.00000000E+00  0.00000000E+00
IOpCl                                      I                0
IROHF                                      I                0
Alpha Orbital Energies                     R   N=          62
  1.99999462E+00  1.99999405E+00  1.98119879E+00  1.97965429E+00  1.81944041E+00
  1.48903543E+00  5.10964569E-01  1.80559588E-01  2.03457066E-02  1.88012110E-02
  5.94935953E-06  5.37648742E-06  4.13476142E-16  4.03411826E-16  2.40428985E-16
  1.78652132E-16  1.31418248E-16  1.02362514E-16  7.22427579E-17  5.01426461E-17
  2.29273003E-17  1.67203359E-17  1.36145506E-17  1.19371981E-17  7.76118782E-18
  7.01120658E-18  6.77290456E-18  4.00919639E-18  3.19277877E-18  1.68122008E-18
  1.50042202E-18  1.25541819E-18  8.47411255E-19  4.16143378E-19  2.70470893E-19
  1.40861687E-19  1.12121378E-19  1.34529961E-20 -1.46173807E-20 -5.27008507E-20
 -1.02621002E-19 -2.43572891E-19 -3.13278838E-19 -4.63314711E-19 -6.12875675E-19
 -6.97733243E-19 -1.45266347E-18 -2.26327951E-18 -2.85735490E-18 -3.23810892E-18
 -4.80518233E-18 -6.39131132E-18 -1.59379616E-17 -1.63048398E-17 -2.33339745E-17
 -3.14144038E-17 -4.78095475E-17 -8.69003519E-17 -1.41719262E-16 -1.72962462E-16
 -2.12625568E-16 -3.11806900E-16
Alpha MO coefficients                      R   N=        3844
 -3.31820782E-01 -4.35886293E-01 -7.52253383E-03  8.34314937E-03  1.40434139E-04
  3.77173965E-05  1.73081118E-04 -7.13206875E-04 -2.43738441E-05 -1.11848976E-04
  9.18869345E-04  1.76633785E-05  8.10553641E-05 -4.23649154E-04 -1.04582318E-04
 -5.81895265E-06 -2.67025544E-05 -1.17536729E-04  5.37805406E-05  5.48960978E-06
 -5.50336495E-06 -2.52543560E-05 -6.73410885E-05  3.08128376E-05  4.95193801E-05
 -1.75205239E-06 -8.03998195E-06 -1.11712642E-05  5.11156496E-06  2.31764814E-07
  3.08898753E-07 -3.31820440E-01 -4.35885844E-01 -7.52252839E-03  8.34314267E-03
  1.40434517E-04 -3.77173684E-05 -1.73080989E-04  7.13205970E-04  2.43738357E-05
  1.11848938E-04 -9.18868705E-04 -1.76633648E-05 -8.10553009E-05  4.23648612E-04
 -1.04582314E-04 -5.81894939E-06 -2.67025394E-05 -1.17536681E-04  5.37805184E-05
  5.48940940E-06 -5.50336598E-06 -2.52543608E-05 -6.73410306E-05  3.08128111E-05
 -4.95193453E-05  1.75205332E-06  8.03998620E-06  1.11712625E-05 -5.11156420E-06
 -2.31764844E-07 -3.08898792E-07  3.31749963E-01  4.35654436E-01  8.64046236E-03
 -1.01747806E-02  6.30745285E-04 -3.35270109E-05 -1.53851885E-04  1.86325367E-03
  2.12470775E-05  9.75005770E-05 -1.42904716E-03 -1.80159331E-05 -8.26731993E-05
  8.81734732E-04  1.77208887E-04  6.10979776E-06  2.80372116E-05  1.20068434E-04
 -5.49389570E-05 -6.39341524E-04 -1.63461883E-06 -7.50109184E-06  9.13459820E-05
 -4.17966054E-05 -1.64972744E-04 -9.38480579E-07 -4.30658749E-06  4.59598120E-06
 -2.10295416E-06  3.76190892E-07  5.01391455E-07 -3.31750303E-01 -4.35654885E-01
 -8.64047288E-03  1.01747918E-02 -6.30744934E-04 -3.35270598E-05 -1.53852109E-04
  1.86325478E-03  2.12471140E-05  9.75007446E-05 -1.42904849E-03 -1.80159551E-05
 -8.26733006E-05  8.81735478E-04 -1.77209115E-04 -6.10980722E-06 -2.80372550E-05
 -1.20068630E-04  5.49390465E-05  6.39341540E-04  1.63461077E-06  7.50105482E-06
 -9.13460880E-05  4.17966540E-05 -1.64972810E-04 -9.38478288E-07 -4.30657698E-06
  4.59599374E-06 -2.10295990E-06  3.76191193E-07  5.01391857E-07 -6.97615782E-02
 -1.60599884E-01  2.75487741E-01  3.52372424E-01  1.18562673E-01  6.72386823E-04
  3.08551156E-03 -1.50140908E-02  8.59547778E-04  3.94437327E-03 -1.15267349E-02
  5.40592553E-04  2.48072169E-03 -3.19501626E-02  2.99318297E-03 -2.15397430E-05
 -9.88435881E-05  2.85915971E-04 -1.30824769E-04  6.15472646E-03 -1.43450688E-04
 -6.58279941E-04 -3.93602867E-04  1.80098384E-04  2.70754957E-03 -3.26522136E-05
 -1.49837533E-04  6.71602300E-04 -3.07300833E-04 -4.55875093E-04 -6.07595455E-04
 -6.97615714E-02 -1.60599870E-01  2.75487687E-01  3.52372427E-01  1.18562708E-01
 -6.72386931E-04 -3.08551206E-03  1.50140833E-02 -8.59547885E-04 -3.94437376E-03
  1.15267219E-02 -5.40592770E-04 -2.48072268E-03  3.19501588E-02  2.99318284E-03
 -2.15397404E-05 -9.88435760E-05  2.85916446E-04 -1.30824987E-04  6.15472692E-03
 -1.43450726E-04 -6.58280114E-04 -3.93602904E-04  1.80098401E-04 -2.70754979E-03
  3.26521952E-05  1.49837448E-04 -6.71602383E-04  3.07300871E-04  4.55875073E-04
  6.07595429E-04 -7.32521949E-02 -1.68740948E-01  2.94968950E-01  3.86432302E-01
  1.59815774E-01  1.03060610E-03  4.72934169E-03 -6.43498276E-02  1.45535597E-03
  6.67847364E-03 -5.72761180E-02  1.26383402E-03  5.79959981E-03 -2.27713605E-02
 -3.35996636E-03  1.92022997E-05  8.81173095E-05 -1.85350741E-05  8.48097706E-06
 -7.22704180E-03  6.24452841E-05  2.86554763E-04 -2.35460792E-03  1.07738311E-03
 -2.00744727E-04  1.25162746E-05  5.74358519E-05  6.13711191E-04 -2.80811963E-04
 -5.10619814E-04 -6.80559835E-04  7.32521922E-02  1.68740943E-01 -2.94968906E-01
 -3.86432322E-01 -1.59815821E-01  1.03060542E-03  4.72933856E-03 -6.43498313E-02
  1.45535537E-03  6.67847088E-03 -5.72761155E-02  1.26383375E-03  5.79959857E-03
 -2.27713775E-02  3.35996534E-03 -1.92023262E-05 -8.81174310E-05  1.85347032E-05
 -8.48080737E-06  7.22703735E-03 -6.24452920E-05 -2.86554799E-04  2.35460788E-03
 -1.07738309E-03 -2.00743860E-04  1.25162790E-05  5.74358723E-05  6.13711447E-04
 -2.80812080E-04 -5.10619849E-04 -6.80559883E-04  1.27664126E-03  3.37261587E-03
 -1.55326512E-02 -2.83406129E-04 -9.87346336E-02  5.14224984E-03  2.35972372E-02
  3.06039177E-01  4.92908697E-03  2.26190555E-02  3.03901596E-01  2.37607098E-03
  1.09035368E-02  1.44601667E-01  1.01743338E-02 -1.92527087E-04 -8.83486312E-04
  1.78523141E-03 -8.16857089E-04  2.72607061E-02 -4.14270476E-04 -1.90104312E-03
  3.58299113E-03 -1.63944668E-03  1.43131736E-03  8.12689060E-05  3.72934360E-04
 -1.56207919E-03  7.14750733E-04  3.94457295E-04  5.25737123E-04  1.27664326E-03
  3.37262049E-03 -1.55326575E-02 -2.83416161E-04 -9.87346663E-02 -5.14224999E-03
 -2.35972379E-02 -3.06039101E-01 -4.92908778E-03 -2.26190592E-02 -3.03901549E-01
 -2.37607190E-03 -1.09035410E-02 -1.44601651E-01  1.01743353E-02 -1.92527051E-04
 -8.83486147E-04  1.78523111E-03 -8.16856950E-04  2.72607101E-02 -4.14270347E-04
 -1.90104253E-03  3.58299051E-03 -1.63944639E-03 -1.43131750E-03 -8.12689463E-05
 -3.72934545E-04  1.56207928E-03 -7.14750773E-04 -3.94457226E-04 -5.25737030E-04
 -1.93860667E-14 -4.68323341E-14  9.25785901E-14  9.44904164E-14  8.97285010E-14
 -3.01887197E-01  6.57864893E-02 -2.40787793E-13 -2.97789541E-01  6.48935384E-02
 -2.45361351E-13 -1.60116436E-01  3.48921660E-02 -1.25113073E-13 -8.51435245E-15
 -5.98056992E-03  1.30327057E-03  1.19138357E-03  2.60375457E-03 -2.50461636E-14
 -2.20015241E-02  4.79451610E-03  2.87977077E-03  6.29370461E-03  1.04616592E-15
 -1.30707123E-03  2.84833634E-04 -2.98371000E-04 -6.52086257E-04  6.80606308E-06
 -5.10654683E-06 -1.95534908E-14 -4.57740849E-14  9.14467783E-14  9.89859286E-14
  8.18711842E-14 -3.01887119E-01  6.57864722E-02  2.42979510E-13 -2.97789503E-01
  6.48935301E-02  2.51062874E-13 -1.60116441E-01  3.48921671E-02  1.28605841E-13
 -8.52095404E-15  5.98057175E-03 -1.30327097E-03 -1.19138354E-03 -2.60375449E-03
 -2.61299356E-14  2.20015298E-02 -4.79451735E-03 -2.87977092E-03 -6.29370496E-03
 -5.10341820E-16 -1.30707139E-03  2.84833670E-04 -2.98371091E-04 -6.52086457E-04
  6.80645759E-06 -5.10684280E-06 -1.10144580E-14 -2.04360004E-14  3.18840912E-14
  7.89071929E-14  6.34992699E-14  3.60189420E-01 -7.84915613E-02  1.44395033E-13
  3.59234623E-01 -7.82834942E-02  1.56312955E-13  1.52869084E-01 -3.33128414E-02
  6.68373479E-14  1.43505034E-15  4.62997607E-03 -1.00895259E-03 -2.33701542E-03
 -5.10751928E-03  7.83932859E-15  1.44816190E-02 -3.15579754E-03 -5.05981658E-03
 -1.10581687E-02  1.59265256E-15 -1.26900620E-03  2.76538600E-04  9.78531305E-04
  2.13856848E-03  3.30178774E-03 -2.47731081E-03  9.42130501E-15  2.20151526E-14
 -3.37457835E-14 -7.72923424E-14 -6.09551405E-14 -3.60189447E-01  7.84915671E-02
  1.48280464E-13 -3.59234658E-01  7.82835018E-02  1.59689441E-13 -1.52869131E-01
  3.33128516E-02  6.75532723E-14 -2.28183687E-15  4.62997707E-03 -1.00895281E-03
 -2.33701525E-03 -5.10751892E-03 -6.58138711E-15  1.44816222E-02 -3.15579823E-03
 -5.05981633E-03 -1.10581682E-02  1.30776848E-15  1.26900656E-03 -2.76538677E-04
 -9.78531336E-04 -2.13856855E-03 -3.30178723E-03  2.47731044E-03 -2.48306921E-02
 -5.73340210E-02  9.46042036E-02  1.89104833E-01  1.51079870E-01  2.71178918E-02
  1.24441119E-01  3.94836366E-01  2.97394262E-02  1.36471061E-01  4.08784687E-01
  1.25265770E-02  5.74831284E-02  1.47350381E-01  6.80762854E-03 -1.69133095E-03
 -7.76133773E-03 -2.12562453E-03  9.72608624E-04  2.42875652E-02 -2.41814505E-03
 -1.10966103E-02 -1.24556934E-02  5.69927314E-03  1.39051751E-03  1.70165899E-03
  7.80873201E-03  8.86648948E-03 -4.05698373E-03 -7.46200813E-04 -9.94544843E-04
  2.48306919E-02  5.73340199E-02 -9.46041963E-02 -1.89104832E-01 -1.51079853E-01
  2.71178914E-02  1.24441118E-01  3.94836392E-01  2.97394264E-02  1.36471063E-01
  4.08784720E-01  1.25265776E-02  5.74831313E-02  1.47350421E-01 -6.80762977E-03
  1.69133073E-03  7.76133669E-03  2.12562444E-03 -9.72608583E-04 -2.42875694E-02
  2.41814458E-03  1.10966081E-02  1.24556944E-02 -5.69927362E-03  1.39051672E-03
  1.70165901E-03  7.80873208E-03  8.86648836E-03 -4.05698321E-03 -7.46200725E-04
 -9.94544726E-04 -2.20594173E-02 -6.22818680E-02  2.25956811E-01  1.08030787E-01
 -2.95651157E-01 -6.23013614E-02 -2.85894316E-01 -4.38232735E-03 -6.65578831E-02
 -3.05427041E-01  3.10159535E-03 -1.60908679E-02 -7.38392800E-02  4.44310456E-02
  1.28895640E-02  1.01550057E-02  4.66002404E-02  9.78321887E-02 -4.47644582E-02
  1.21158206E-02  1.96587922E-02  9.02121050E-02  2.05599685E-01 -9.40749523E-02
 -4.29699153E-03 -1.18849883E-04 -5.45389466E-04 -6.93335631E-03  3.17245216E-03
  2.29723831E-03  3.06178508E-03 -2.20594205E-02 -6.22818757E-02  2.25956831E-01
  1.08030817E-01 -2.95651218E-01  6.23013626E-02  2.85894322E-01  4.38232707E-03
  6.65578860E-02  3.05427055E-01 -3.10159553E-03  1.60908701E-02  7.38392905E-02
 -4.44310356E-02  1.28895631E-02  1.01550067E-02  4.66002451E-02  9.78321932E-02
 -4.47644603E-02  1.21158219E-02  1.96587941E-02  9.02121139E-02  2.05599693E-01
 -9.40749562E-02  4.29699137E-03  1.18850051E-04  5.45390232E-04  6.93335688E-03
 -3.17245242E-03 -2.29723827E-03 -3.06178503E-03 -2.77800891E-02 -7.48170995E-02
  2.23445827E-01  1.88221171E-01 -3.95520469E-01 -5.68584650E-02 -2.60917444E-01
  1.24871632E-01 -6.07475853E-02 -2.78764203E-01  1.65552365E-01 -1.56897463E-02
 -7.19985761E-02 -1.89666309E-02  2.38733554E-02  9.06272101E-03  4.15878621E-02
  9.68828647E-02 -4.43300820E-02  6.19151794E-02  1.91675814E-02  8.79579908E-02
  1.85085101E-01 -8.46882234E-02  2.82532939E-03  7.56459965E-04  3.47131427E-03
 -8.35634590E-04  3.82356055E-04  1.79666947E-03  2.39462129E-03  2.77800921E-02
  7.48171061E-02 -2.23445843E-01 -1.88221193E-01  3.95520500E-01 -5.68584592E-02
 -2.60917418E-01  1.24871655E-01 -6.07475803E-02 -2.78764181E-01  1.65552377E-01
 -1.56897458E-02 -7.19985736E-02 -1.89666239E-02 -2.38733529E-02 -9.06272124E-03
 -4.15878632E-02 -9.68828614E-02  4.43300805E-02 -6.19151718E-02 -1.91675817E-02
 -8.79579923E-02 -1.85085089E-01  8.46882181E-02  2.82532866E-03  7.56459985E-04
  3.47131436E-03 -8.35635616E-04  3.82356524E-04  1.79666934E-03  2.39462111E-03
 -2.71708354E-01  2.21250075E-02  1.15426028E+00 -1.28527511E+00  3.38053994E-01
  9.81886096E-03  4.50577079E-02  1.51720628E-02  3.57261942E-02  1.63943703E-01
  5.09086565E-02  1.17433256E-02  5.38888711E-02 -4.10526844E-02  1.26843356E-01
  3.32751321E-02  1.52696040E-01  3.93486995E-01 -1.80045365E-01 -2.88502641E-02
 -1.99222090E-02 -9.14208969E-02 -1.55123298E-01  7.09787900E-02 -2.87165092E-04
 -1.17551976E-03 -5.39433504E-03  1.68920038E-02 -7.72916776E-03 -4.12420723E-03
 -5.49678982E-03 -2.71708637E-01  2.21250493E-02  1.15426163E+00 -1.28527697E+00
  3.38054608E-01 -9.81886389E-03 -4.50577213E-02 -1.51719707E-02 -3.57262286E-02
 -1.63943860E-01 -5.09083528E-02 -1.17433367E-02 -5.38889222E-02  4.10526167E-02
  1.26843469E-01  3.32751702E-02  1.52696214E-01  3.93487411E-01 -1.80045555E-01
 -2.88504117E-02 -1.99222255E-02 -9.14209724E-02 -1.55123482E-01  7.09788741E-02
  2.87185029E-04  1.17551922E-03  5.39433260E-03 -1.68920042E-02  7.72916791E-03
  4.12421093E-03  5.49679475E-03 -2.72648436E-01  4.52486583E-02  1.30120439E+00
 -1.81232548E+00  5.72125764E-01  1.72695228E-03  7.92480021E-03 -8.59773083E-02
  3.17788107E-02  1.45829580E-01 -2.95084590E-01  1.00711374E-02  4.62153777E-02
  6.17086549E-02  1.16516393E-01  3.51427169E-02  1.61266187E-01  4.11912858E-01
 -1.88476371E-01 -1.47306123E-01 -1.46681651E-02 -6.73106485E-02 -1.73767604E-01
  7.95097475E-02 -1.94317100E-02  4.57940230E-04  2.10143897E-03  9.45184821E-04
 -4.32482263E-04 -3.77854178E-03 -5.03608301E-03  2.72648161E-01 -4.52486320E-02
 -1.30120322E+00  1.81232418E+00 -5.72125434E-01  1.72694189E-03  7.92475252E-03
 -8.59773312E-02  3.17787741E-02  1.45829412E-01 -2.95084652E-01  1.00711252E-02
  4.62153215E-02  6.17086926E-02 -1.16516255E-01 -3.51426849E-02 -1.61266041E-01
 -4.11912447E-01  1.88476183E-01  1.47306092E-01  1.46681462E-02  6.73105617E-02
  1.73767447E-01 -7.95096758E-02 -1.94317115E-02  4.57941399E-04  2.10144433E-03
  9.45166191E-04 -4.32473739E-04 -3.77853736E-03 -5.03607712E-03 -4.39847106E-01
  5.13168780E-01 -1.38873272E-01 -3.38189704E-01  2.70639370E-01 -2.89976552E-02
  1.17684400E-03 -1.58002142E-02 -3.62715875E-03 -6.64152592E-02  1.04409665E-01
  3.92431595E-02 -6.01345905E-02 -3.46495277E-01 -3.63686051E-01 -9.40377213E-02
 -5.67478841E-02 -2.91732794E-02 -3.75342998E-02  3.63681226E-01 -7.71297231E-02
 -3.62300582E-02 -1.00252034E-01  5.88957103E-02  9.25757527E-02 -2.34675387E-03
 -7.11201909E-03 -9.16754137E-03 -1.59988079E-03 -3.98018015E-04 -1.38995512E-03
 -1.49969195E-01  2.00363284E-01 -2.59893671E-01  2.93587693E-01 -8.23266274E-02
 -6.26596140E-02  2.29403912E-02 -4.64573717E-02  1.56185749E-02  7.93454932E-03
 -2.05319215E-02  7.89155896E-02  2.60441751E-03  1.47233989E-01  4.73407050E-02
  1.11294791E-01 -2.13517761E-02 -1.36498337E-01  1.92949863E-02  6.10722412E-01
  1.77761839E-01  9.23944646E-02 -4.20694109E-02  3.33276993E-02  4.44852712E-02
 -4.47563864E-02 -2.63896331E-02  1.20111258E-02 -5.60902005E-05 -2.77033202E-03
  4.00632954E-04 -4.38522006E-02 -5.69740820E-02  7.97301328E-02  7.57304591E-01
 -5.25473917E-01  3.06727850E-02  3.54250139E-02  1.14170557E-01 -1.79195556E-02
  1.48479383E-02  1.73832809E-01  2.62847970E-03 -1.92158273E-02 -1.12126220E-01
 -2.79428258E-01 -1.00472797E-01 -9.09393741E-02 -1.71133706E-01 -7.79928951E-03
 -2.23805871E-01 -1.13773934E-01 -4.28122905E-02 -2.68670378E-02  3.12248509E-02
 -8.71000738E-02 -2.05139496E-02 -3.01790493E-02 -2.32255244E-02  1.63249618E-03
  2.35578111E-03 -3.57456867E-03  3.21117338E-01 -4.72593994E-01  4.21102789E-01
  3.31632027E-01 -5.81040563E-01  2.41657322E-02 -8.16645804E-02 -3.75335275E-01
  4.62784649E-03 -1.94544433E-02  1.18921821E-01 -2.14773369E-02  1.52354908E-02
  3.81144940E-01 -3.43682815E-01  4.92008045E-03  8.13689819E-02 -1.15801717E-01
 -8.90826193E-03 -1.21462234E-01  1.24589213E-02  1.74417888E-01  7.41730912E-03
  2.95746488E-02  7.75074871E-02 -7.13994045E-03 -9.48364274E-03  2.32920589E-02
  3.30823903E-03 -1.19343188E-04 -5.22212895E-05  1.29274861E-01 -7.55582411E-02
 -4.27928689E-01  1.11595417E+00 -5.59987384E-01 -5.38357699E-02  5.95587476E-02
  3.26543706E-01  3.76707617E-02  5.08239812E-02  1.32310440E-01  2.90742997E-02
  4.63674651E-02 -7.26699726E-01  2.63734259E-01  1.38530189E-01  3.69657654E-02
  5.41765957E-02  1.41702112E-01 -3.19081155E-01  1.99486689E-01  2.20549268E-03
  1.70172232E-01 -1.35973177E-01 -5.58243953E-02 -4.58926511E-03 -4.72284184E-03
  1.77657889E-02  1.27382604E-02  7.55709374E-03  5.40468305E-04  5.04927603E-02
  2.60332448E-02 -5.93389515E-01  1.32482539E+00 -4.70591902E-01 -7.28871272E-02
  4.45093388E-02 -2.69965170E-01 -4.78189346E-02 -4.07249486E-02 -3.08216460E-01
  4.38369791E-02 -1.28982392E-01  6.56832513E-01  3.49710746E-01 -1.79599161E-02
 -6.59752759E-02  7.53746587E-02  1.14329017E-01 -2.75738023E-01  6.94554549E-03
 -1.24367256E-01  1.72862629E-01 -1.17646216E-01 -5.31190900E-02  5.43548894E-02
  4.09048873E-02 -2.09061873E-02 -1.68271516E-02 -4.57623443E-03  2.42418102E-03
 -9.93856242E-03 -1.46006744E-02 -2.56135568E-01  9.67118312E-01 -3.75944754E-01
 -1.45671409E-01  5.89374680E-02 -3.32161539E-01 -6.59616906E-02 -4.79663994E-02
  5.41310574E-01  1.42568877E-01 -7.22911924E-02  1.05781018E-01  4.46312410E-01
 -1.92882524E-02 -2.16301887E-01 -1.37728802E-01  6.50481656E-02  3.38585879E-01
  1.19927443E-01 -6.18528266E-02 -1.17954397E-01  9.65677504E-02 -5.66050979E-02
  1.38824140E-01  3.93710763E-02  2.59816105E-02  1.64463369E-03 -8.42482003E-03
 -9.05694515E-03  7.58550296E-02 -1.29346145E-01  4.89718649E-01 -8.34755658E-01
  1.12722937E-01 -2.40586710E-01  1.06111269E-01 -2.12337447E-03  3.70540876E-03
  9.53131867E-03  8.09331657E-02  2.17233693E-01  5.47690925E-02  4.84402723E-01
 -2.29836563E-01 -2.51233583E-02 -1.07151928E-02  1.16777348E-01 -8.16950130E-02
 -1.54180965E-01 -8.62724129E-02  2.06359801E-02 -2.22531236E-01  1.23420354E-01
  3.06794885E-02 -7.17284398E-02 -8.25431646E-02  1.02027873E-02 -2.43159881E-03
 -2.23769086E-03 -7.10939650E-04 -1.84065986E-01  2.60885636E-01 -4.50199154E-01
  6.84079530E-01 -4.04115559E-01  1.08616395E-01 -4.55950127E-02 -4.72594486E-01
 -3.33419139E-02 -6.15310165E-02  8.17190915E-01 -5.21718529E-02  1.13000503E-01
 -5.44725282E-01  3.03793670E-01  4.32225680E-02  9.56883946E-02 -2.22156658E-01
 -5.12787728E-02 -2.02688174E-01 -6.14285968E-02  3.36564778E-01  7.92736473E-02
 -3.29120852E-02  1.97612180E-02 -4.94057468E-02  3.94887390E-02 -3.40638876E-02
 -5.06041063E-04  1.70888171E-03 -1.59245925E-03  6.29406289E-01 -8.50073675E-01
  1.01531146E+00 -8.25936497E-01  3.43559540E-01  2.02959347E-01 -1.64061577E-01
 -1.51483704E-02 -1.74144295E-02 -4.80180313E-02  6.38916384E-02 -1.56892128E-01
  2.06258627E-01  2.72855689E-02  1.52934074E-01  6.91063541E-03  1.76624272E-02
  2.92840164E-03 -1.26162073E-01 -1.95796737E-02 -1.39835832E-01 -1.15271542E-01
 -1.92293524E-01  6.53201843E-02  9.35241677E-02  6.13692403E-02  5.40869894E-02
  1.44561875E-02  8.69008889E-03  9.53230254E-03  7.15928432E-03 -2.52171270E-02
  9.84154132E-02 -5.00407635E-01  7.40338385E-01 -1.18555110E-01  1.34369994E-01
  8.61335794E-02  8.28769663E-03 -1.49517575E-02  7.03414809E-02 -2.06932803E-01
 -6.54416337E-02  9.23349542E-02  5.03771199E-01 -4.06825966E-02 -7.03741920E-02