HF file generated by AutoMR of MOKIT                                    
SP        RHF                                                         CC-pVDZ             
Number of atoms                            I                2
Info1-9                                    I   N=           9
          12          11           0           0           0         110
           1           1           2
Charge                                     I                0
Multiplicity                               I                1
Number of electrons                        I               12
Number of alpha electrons                  I                6
Number of beta electrons                   I                6
Number of basis functions                  I               28
Number of independent functions            I               28
Number of point charges in /Mol/           I                0
Number of translation vectors              I                0
Atomic numbers                             I   N=           2
           6           6
Nuclear charges                            R   N=           2
  6.00000000E+00  6.00000000E+00
Current cartesian coordinates              R   N=           6
  0.00000000E+00  0.00000000E+00  0.00000000E+00  0.00000000E+00  0.00000000E+00
  2.34326040E+00
Force Field                                I                0
Int Atom Types                             I   N=           2
           0           0
MM charges                                 R   N=           2
  0.00000000E+00  0.00000000E+00
Integer atomic weights                     I   N=           2
          12          12
Real atomic weights                        R   N=           2
  1.20000000E+01  1.20000000E+01
Atom fragment info                         I   N=           2
           0           0
Atom residue num                           I   N=           2
           0           0
Nuclear spins                              I   N=           2
           0           0
Nuclear ZEff                               R   N=           2
 -3.60000000E+00 -3.60000000E+00
Nuclear QMom                               R   N=           2
  0.00000000E+00  0.00000000E+00
Nuclear GFac                               R   N=           2
  0.00000000E+00  0.00000000E+00
MicOpt                                     I   N=           2
          -1          -1
Number of contracted shells                I               12
Number of primitive shells                 I               44
Pure/Cartesian d shells                    I                0
Pure/Cartesian f shells                    I                0
Highest angular momentum                   I                2
Largest degree of contraction              I                8
Shell types                                I   N=          12
           0           0           0           1           1          -2
           0           0           0           1           1          -2
Number of primitives per shell             I   N=          12
           8           8           1           3           1           1
           8           8           1           3           1           1
Shell to atom map                          I   N=          12
           1           1           1           1           1           1
           2           2           2           2           2           2
Primitive exponents                        R   N=          44
  6.66500000E+03  1.00000000E+03  2.28000000E+02  6.47100000E+01  2.10600000E+01
  7.49500000E+00  2.79700000E+00  5.21500000E-01  6.66500000E+03  1.00000000E+03
  2.28000000E+02  6.47100000E+01  2.10600000E+01  7.49500000E+00  2.79700000E+00
  5.21500000E-01  1.59600000E-01  9.43900000E+00  2.00200000E+00  5.45600000E-01
  1.51700000E-01  5.50000000E-01  6.66500000E+03  1.00000000E+03  2.28000000E+02
  6.47100000E+01  2.10600000E+01  7.49500000E+00  2.79700000E+00  5.21500000E-01
  6.66500000E+03  1.00000000E+03  2.28000000E+02  6.47100000E+01  2.10600000E+01
  7.49500000E+00  2.79700000E+00  5.21500000E-01  1.59600000E-01  9.43900000E+00
  2.00200000E+00  5.45600000E-01  1.51700000E-01  5.50000000E-01
Contraction coefficients                   R   N=          44
  6.91583963E-04  5.32579615E-03  2.70607210E-02  1.01656846E-01  2.74574824E-01
  4.48294319E-01  2.84902611E-01  1.51948592E-02 -2.93269653E-04 -2.31803547E-03
 -1.14997860E-02 -4.68267270E-02 -1.28466169E-01 -3.01266272E-01 -2.55630702E-01
  1.09379336E+00  1.00000000E+00  5.69792516E-02  3.13207212E-01  7.60376742E-01
  1.00000000E+00  1.00000000E+00  6.91583963E-04  5.32579615E-03  2.70607210E-02
  1.01656846E-01  2.74574824E-01  4.48294319E-01  2.84902611E-01  1.51948592E-02
 -2.93269653E-04 -2.31803547E-03 -1.14997860E-02 -4.68267270E-02 -1.28466169E-01
 -3.01266272E-01 -2.55630702E-01  1.09379336E+00  1.00000000E+00  5.69792516E-02
  3.13207212E-01  7.60376742E-01  1.00000000E+00  1.00000000E+00
Coordinates of each shell                  R   N=          36
  0.00000000E+00  0.00000000E+00  0.00000000E+00  0.00000000E+00  0.00000000E+00
  0.00000000E+00  0.00000000E+00  0.00000000E+00  0.00000000E+00  0.00000000E+00
  0.00000000E+00  0.00000000E+00  0.00000000E+00  0.00000000E+00  0.00000000E+00
  0.00000000E+00  0.00000000E+00  0.00000000E+00  0.00000000E+00  0.00000000E+00
  2.34326040E+00  0.00000000E+00  0.00000000E+00  2.34326040E+00  0.00000000E+00
  0.00000000E+00  2.34326040E+00  0.00000000E+00  0.00000000E+00  2.34326040E+00
  0.00000000E+00  0.00000000E+00  2.34326040E+00  0.00000000E+00  0.00000000E+00
  2.34326040E+00
Constraint Structure                       R   N=           6
  0.00000000E+00  0.00000000E+00  0.00000000E+00  0.00000000E+00  0.00000000E+00
  2.34326040E+00
Num ILSW                                   I              100
ILSW                                       I   N=         100
           0           0           0           0           2           0
           0           0           0           0           0          -1
           0           0           0           0           0           0
           0           0           0           0           0           0
           1           1           0           0           0           0
           0           0      100000           0          -1           0
           0           0           0           0           0           0
           0           0           0           1           0           0
           0           0           1           0           0           0
           0           0           4          40           0           0
           0           0           0           0           0           0
           0           0           0           0           0           0
           0           0           0           0           0           0
           0           0           0           0           0           0
           0           0           0           0           0           0
           0           0           0           0           0           0
           0           0           0           0
Num RLSW                                   I               40
RLSW                                       R   N=          40
  1.00000000E+00  1.00000000E+00  1.00000000E+00  1.00000000E+00  1.00000000E+00
  0.00000000E+00  0.00000000E+00  1.00000000E+00  0.00000000E+00  0.00000000E+00
  0.00000000E+00  0.00000000E+00  1.00000000E+00  0.00000000E+00  0.00000000E+00
  0.00000000E+00  0.00000000E+00  1.00000000E+00  0.00000000E+00  0.00000000E+00
  0.00000000E+00  0.00000000E+00  1.00000000E+00  0.00000000E+00  0.00000000E+00
  0.00000000E+00  0.00000000E+00  1.00000000E+00  0.00000000E+00  0.00000000E+00
  0.00000000E+00  0.00000000E+00  1.00000000E+00  0.00000000E+00  0.00000000E+00
  0.00000000E+00  0.00000000E+00  0.00000000E+00  1.00000000E+00  1.00000000E+00
MxBond                                     I                1
NBond                                      I   N=           2
           1           1
IBond                                      I   N=           2
           2           1
RBond                                      R   N=           2
  3.00000000E+00  3.00000000E+00
Virial Ratio                               R      2.000269942130757E+00
SCF Energy                                 R     -7.538681711418410E+01
Total Energy                               R     -7.538681711418410E+01
RMS Density                                R      2.953467266703051E-10
External E-field                           R   N=          35
  0.00000000E+00  0.00000000E+00  0.00000000E+00  0.00000000E+00  0.00000000E+00
  0.00000000E+00  0.00000000E+00  0.00000000E+00  0.00000000E+00  0.00000000E+00
  0.00000000E+00  0.00000000E+00  0.00000000E+00  0.00000000E+00  0.00000000E+00
  0.00000000E+00  0.00000000E+00  0.00000000E+00  0.00000000E+00  0.00000000E+00
  0.00000000E+00  0.00000000E+00  0.00000000E+00  0.00000000E+00  0.00000000E+00
  0.00000000E+00  0.00000000E+00  0.00000000E+00  0.00000000E+00  0.00000000E+00
  0.00000000E+00  0.00000000E+00  0.00000000E+00  0.00000000E+00  0.00000000E+00
IOpCl                                      I                0
IROHF                                      I                0
Alpha Orbital Energies                     R   N=          28
 -1.13643453E+01 -1.13620587E+01 -1.06250649E+00 -5.15214597E-01 -4.55518617E-01
 -4.55518617E-01 -1.06303432E-01  1.66062569E-01  1.66062569E-01  3.95337101E-01
  5.91575079E-01  6.29484213E-01  6.29484213E-01  7.30755509E-01  7.67995306E-01
  7.67995306E-01  9.34832969E-01  1.21757940E+00  1.21757940E+00  1.25487846E+00
  1.37235534E+00  1.37235534E+00  1.63155196E+00  1.63155196E+00  2.03910229E+00
  2.10214635E+00  2.10214635E+00  2.41070365E+00
Alpha MO coefficients                      R   N=         784
  7.07255929E-01  3.87572223E-04 -1.79999536E-03  1.01393118E-16 -2.39803602E-18
  3.11446098E-04  1.81375077E-17 -2.37655223E-16 -2.08475146E-05  2.25141382E-04
 -3.16124199E-16  1.62912109E-16  1.00975330E-16 -1.28452774E-16  7.07255929E-01
  3.87572222E-04 -1.79999536E-03  1.88979776E-16 -1.35796919E-16 -3.11446098E-04
 -4.63923148E-16  1.91454422E-16  2.08475136E-05  2.25141382E-04  5.20617431E-16
 -2.26600969E-16 -1.39255441E-16  1.60316768E-16  7.08458550E-01  1.50440881E-03
 -9.06663442E-03  1.10641580E-16 -3.75411403E-16  8.15740909E-04 -4.12933319E-16
  1.69703907E-17 -2.98836457E-03  1.18121099E-04 -1.92360005E-16 -7.34475479E-16
 -3.36703841E-16 -6.36410903E-18 -7.08458550E-01 -1.50440881E-03  9.06663442E-03
 -1.68222356E-16  2.44693144E-16  8.15740909E-04  2.79476616E-16  1.66492846E-16
 -2.98836457E-03 -1.18121099E-04 -2.05414642E-16 -5.87803568E-16 -9.96505549E-17
 -6.32171099E-18 -1.18683623E-02  3.46805364E-01  2.12087107E-01  9.62041618E-16
 -3.89127246E-16  1.67723335E-01 -2.22436324E-18  7.99192588E-17  1.83549381E-02
  2.08096750E-02 -1.50551890E-16 -1.85334612E-16 -2.17018897E-16  1.77261917E-16
 -1.18683623E-02  3.46805364E-01  2.12087107E-01  1.07719745E-15 -1.46515671E-16
 -1.67723335E-01  6.67029496E-16 -1.72029585E-16 -1.83549381E-02  2.08096750E-02
 -4.17545067E-16 -2.12582362E-17  4.74131205E-17 -1.79101668E-16  5.47950029E-03
  3.29264073E-01  4.30705475E-01 -2.61156140E-15  1.43757620E-15 -1.89186685E-01
 -1.21201147E-15  9.97514509E-16 -1.27174205E-01 -7.49637498E-03 -4.17641067E-16
  2.45126174E-16 -3.70195371E-16  2.04925112E-16 -5.47950029E-03 -3.29264073E-01
 -4.30705475E-01 -1.17916360E-16  7.17997218E-16 -1.89186685E-01 -3.06865565E-16
  2.14382177E-16 -1.27174205E-01  7.49637498E-03 -2.00010107E-16  3.15752024E-17
 -1.12849953E-16 -1.30231062E-16 -1.00509333E-15 -1.51955648E-15  2.14746693E-14
 -1.31818814E-01  4.10023095E-01 -3.52643044E-15 -7.44925103E-02  2.31709335E-01
  8.41637203E-15  7.26441888E-16 -1.20061665E-02  3.73452423E-02  3.43105763E-17
  2.16532572E-16  7.74047922E-16  3.33626870E-15 -1.47363664E-14 -1.31818814E-01
  4.10023095E-01  5.87200060E-15 -7.44925103E-02  2.31709335E-01  1.23207115E-14
 -8.84717964E-16  1.20061665E-02 -3.73452423E-02  1.30058271E-17  1.90670818E-16
  4.23231620E-16 -2.94599601E-16 -1.27741950E-14  4.10023095E-01  1.31818814E-01
  5.10481760E-15  2.31709335E-01  7.44925103E-02 -2.15110172E-15 -3.31878587E-16
  3.73452423E-02  1.20061665E-02  9.18955023E-17 -3.83935278E-16 -2.73470295E-16
 -2.65250998E-15  3.95455689E-15  4.10023095E-01  1.31818814E-01 -6.60179880E-15
  2.31709335E-01  7.44925103E-02 -7.97887518E-15  6.32503041E-16 -3.73452423E-02
 -1.20061665E-02  3.28303183E-16  3.42412848E-16  1.87434787E-02 -2.51619934E-02
 -3.67204940E-01 -5.69808635E-15  1.88849507E-15  4.20845490E-01 -4.77917529E-15
  1.55656404E-15  3.11369415E-01  9.03395923E-03 -1.54857664E-16  2.55128183E-17
  4.99566531E-16  1.08061197E-16  1.87434787E-02 -2.51619934E-02 -3.67204940E-01
 -5.54902094E-15  1.89184970E-15 -4.20845490E-01 -4.79313472E-15  1.60716515E-15
 -3.11369415E-01  9.03395923E-03  2.14669784E-16 -1.12521951E-16  1.22369063E-16
  1.10235421E-16  3.62293657E-16  2.36333819E-16 -1.13697074E-14 -6.45440023E-02
  3.85107998E-01 -6.60516516E-16 -1.26605247E-01  7.55402384E-01 -5.93691232E-15
 -2.60634952E-16  4.45326742E-03 -2.65708484E-02  1.62485234E-15  7.61648540E-16
 -6.62074760E-16 -9.14291834E-16  1.22942373E-14  6.45440023E-02 -3.85107998E-01
 -4.45006821E-16  1.26605247E-01 -7.55402384E-01 -5.63087158E-15  1.83636422E-16
  4.45326742E-03 -2.65708484E-02  6.67141580E-16 -4.09142785E-16 -5.91817178E-16
 -3.62404363E-16  9.08004797E-15  3.85107998E-01  6.45440023E-02  1.03640682E-15
  7.55402384E-01  1.26605247E-01  3.69519601E-15 -1.35992808E-16 -2.65708484E-02
 -4.45326742E-03  4.94276087E-16  8.87525935E-17  6.46057392E-16  4.09810612E-16
 -9.29641315E-15 -3.85107998E-01 -6.45440023E-02  5.16104938E-16 -7.55402384E-01
 -1.26605247E-01  3.83967940E-15  1.19064558E-16 -2.65708484E-02 -4.45326742E-03
 -2.97008151E-16 -1.11137894E-16 -3.63928780E-02  1.41440347E-01  4.60539549E+00
 -1.59629450E-15  3.46136273E-15 -1.28723362E-02 -2.14985032E-15 -5.34221816E-16
  2.84719693E+00  8.56122435E-02 -1.04059773E-15 -4.73826786E-16 -5.31007999E-15
  9.40474736E-17  3.63928780E-02 -1.41440347E-01 -4.60539549E+00 -1.17119490E-15
 -1.04973405E-15 -1.28723362E-02  4.58210606E-15 -1.04115524E-15  2.84719693E+00
 -8.56122435E-02  7.75727773E-16 -7.84420735E-16  6.78991116E-16 -6.98970933E-17
 -1.08968908E-01 -1.80548221E-01 -8.69878220E-02 -6.33257971E-15  4.28877488E-15
 -5.29135604E-01  8.08491144E-15 -5.81906384E-15  9.94653884E-01 -3.62050128E-02
 -6.69691590E-16  6.85175058E-17 -5.87153194E-16 -2.45919432E-16 -1.08968908E-01
 -1.80548221E-01 -8.69878220E-02 -4.35934632E-15  3.32054124E-17  5.29135604E-01
  3.97078377E-15  1.17059737E-15 -9.94653884E-01 -3.62050128E-02  8.12562301E-16
 -8.37617609E-16  3.88023799E-16 -2.89829771E-16  6.21313971E-16  2.32327478E-15
  2.42040214E-16  5.29472070E-01  3.40287588E-01 -3.89225647E-15 -5.23209140E-01
 -3.36262451E-01  7.72438293E-15 -1.46953017E-16  8.58983863E-02  5.52062258E-02
 -2.45075118E-16 -4.77780765E-16 -5.36220339E-16 -1.11407867E-15 -3.31667086E-15
  5.29472070E-01  3.40287588E-01  3.89230824E-15 -5.23209140E-01 -3.36262451E-01
 -2.84495133E-15  3.74763817E-17 -8.58983863E-02 -5.52062258E-02 -3.62559687E-16
 -6.09355447E-16 -1.48618468E-15 -5.13893435E-15 -6.73732089E-15 -3.40287588E-01
  5.29472070E-01  6.20244448E-15  3.36262451E-01 -5.23209140E-01 -1.61064912E-14
  3.04244007E-16 -5.52062258E-02  8.58983863E-02  3.74775473E-16  8.30749063E-17
 -8.40475492E-16 -1.86958461E-15  1.59735504E-14 -3.40287588E-01  5.29472070E-01
 -5.44978245E-15  3.36262451E-01 -5.23209140E-01 -5.41305278E-16 -2.66869384E-16
  5.52062258E-02 -8.58983863E-02  6.95816251E-16 -3.82422838E-17  4.34148222E-01
  1.06056167E+00 -9.13392424E-01 -3.15888069E-15 -5.56422046E-15 -2.50549193E-01
  4.55464302E-15  1.02359136E-14  5.87560449E-02  8.50784917E-02 -7.65631209E-16
  1.10050014E-15  5.03008651E-15  1.66413579E-16  4.34148222E-01  1.06056167E+00
 -9.13392424E-01 -3.46373180E-16  1.00226687E-14  2.50549193E-01  2.99965465E-16
 -1.46905473E-14 -5.87560449E-02  8.50784917E-02  8.04971030E-16  1.20004182E-15
  1.22369884E-15 -2.77047158E-16 -2.35309654E-15 -5.68957699E-15 -3.97706813E-15
 -4.98490665E-01 -5.58072552E-01 -2.00981725E-15  8.00193642E-01  8.95836450E-01
 -3.15142558E-16 -1.62306746E-15  8.27773209E-02  9.26712453E-02  1.71766498E-16
 -5.52850256E-16 -6.31141100E-15 -1.52008957E-14  2.11195170E-14  4.98490665E-01
  5.58072552E-01 -5.33457454E-15 -8.00193642E-01 -8.95836450E-01 -2.22279101E-15
  4.11845492E-17  8.27773209E-02  9.26712453E-02 -3.49737457E-17 -1.26517948E-15
  2.34623564E-15  4.88574995E-15 -3.08290823E-15 -5.58072552E-01  4.98490665E-01
  8.48158622E-16  8.95836450E-01 -8.00193642E-01 -3.64714359E-15  1.10495345E-15
  9.26712453E-02 -8.27773209E-02 -2.57814968E-16  3.62694077E-16  3.42046097E-15
  8.33604169E-15 -6.60140073E-15  5.58072552E-01 -4.98490665E-01 -1.00984091E-15
 -8.95836450E-01  8.00193642E-01  3.68974006E-15  2.61903884E-18  9.26712453E-02
 -8.27773209E-02 -1.99112727E-16 -1.40553150E-15 -2.40568732E-01 -4.19925463E-01
  1.81869434E+00 -2.62382392E-15 -1.13506602E-15  6.80587855E-01  2.45138429E-15
  4.29723926E-15  4.07810310E-01 -2.94908738E-01  1.22811271E-15 -9.08007784E-16
 -6.46914405E-15 -4.18032393E-16  2.40568732E-01  4.19925463E-01 -1.81869434E+00
  2.89964625E-15  2.55673538E-15  6.80587855E-01 -2.95035105E-15 -4.44414183E-15
  4.07810310E-01  2.94908738E-01  2.10796801E-15  5.40163479E-16 -3.36123772E-15
  4.72236825E-16  8.36244847E-14  1.91201024E-13 -9.37672278E-13  3.73819424E-15
 -1.36624651E-15  1.62031201E-14 -2.82148910E-16 -1.32699469E-15 -4.05189056E-13
 -5.36183029E-14 -1.10031919E-15  1.22882271E-15  6.39939627E-01  2.65833451E-03
 -8.74142466E-14 -2.00875173E-13  9.47136410E-13  2.05631580E-15 -9.93355980E-16
  1.31335536E-14 -3.27189206E-15  2.48025945E-15 -4.02890362E-13  5.11772587E-14
  5.99998895E-15 -4.04386433E-16  6.39939627E-01  2.65833451E-03  7.11178852E-17
  1.97038625E-16 -1.20529754E-15 -1.43407109E-15  9.71252279E-16 -5.46456438E-16
  2.31561120E-15 -6.27270980E-16  2.90708391E-16 -1.97303741E-17  2.02880719E-15
 -3.62948254E-15 -2.65833451E-03  6.39939627E-01 -1.71896079E-16 -2.97993352E-16
  1.06599543E-15  1.98737627E-15  3.54965721E-15  6.10346432E-16 -3.89295527E-15
 -1.72447583E-15 -1.21761026E-15 -6.82012964E-17 -1.03080226E-15  2.93434950E-15
 -2.65833451E-03  6.39939627E-01 -6.19258699E-01 -1.40970586E+00  6.83321435E+00
  9.49956749E-15  6.54570617E-16 -8.04027249E-02 -2.15730303E-15  6.92662448E-15
  2.92873685E+00  3.44439849E-01 -1.48704968E-14 -6.04110502E-15  7.34605971E-14
 -3.96877252E-16  6.19258699E-01  1.40970586E+00 -6.83321435E+00  1.23789107E-14
  5.71799459E-15 -8.04027249E-02 -7.56334434E-15 -6.75304802E-15  2.92873685E+00
 -3.44439849E-01  2.33636806E-14  3.17969210E-15  1.07821460E-13  1.33083918E-15
 -2.38398023E-14 -5.27446045E-14  2.61061343E-13 -3.00179463E-01 -1.04767325E-01
 -4.62370511E-15  8.36054694E-02  2.91796156E-02  1.15239771E-13  1.28800213E-14
  5.66399328E-01  1.97682219E-01  4.37997360E-15 -1.56445405E-15  2.27735036E-14
  5.12113289E-14 -2.61883166E-13 -3.00179463E-01 -1.04767325E-01 -2.70125470E-15
  8.36054694E-02  2.91796156E-02  1.13438015E-13 -8.44256459E-15 -5.66399328E-01
 -1.97682219E-01  3.27499363E-15  1.25740571E-15  2.18921043E-15  5.01807561E-15
 -2.79865608E-14  1.04767325E-01 -3.00179463E-01  1.25912592E-15 -2.91796156E-02
  8.36054694E-02 -1.29689969E-14 -1.42720220E-15 -1.97682219E-01  5.66399328E-01
 -3.37584600E-15  4.66395308E-16 -1.63407352E-15 -3.46525374E-15  2.63338152E-14
  1.04767325E-01 -3.00179463E-01  1.29720305E-15 -2.91796156E-02  8.36054694E-02
 -1.32837770E-14  2.03531169E-15  1.97682219E-01 -5.66399328E-01 -1.75515830E-15
  8.29997014E-15 -1.45773822E-14 -3.37429082E-14  1.39425784E-13  5.82647661E-16
 -1.88363585E-15 -7.32131101E-15 -5.69160563E-16 -2.51227195E-15  5.75910321E-14
 -4.64437473E-15  1.27175643E-15 -4.28847137E-15  8.01107875E-01  1.58807782E-03
  1.63274782E-14  3.52850086E-14 -1.37691536E-13 -8.01973822E-16  1.49965841E-15
 -1.14538238E-14  6.40271107E-16  2.17465884E-15  6.31561704E-14 -4.13607624E-15
  2.88382938E-15 -5.53011364E-15 -8.01107875E-01 -1.58807782E-03 -4.38680905E-16
 -1.19958340E-15  5.33754041E-15  8.23170547E-16 -2.97757310E-15  9.70703891E-16
 -4.17693284E-15  3.95327818E-16 -1.69912214E-16 -1.19236284E-15 -3.02160245E-15
  2.62226186E-15 -1.58807782E-03  8.01107875E-01  1.26110932E-15  2.56505340E-15
 -5.20986063E-15 -1.18476682E-15 -1.16977137E-15 -1.84915926E-16  3.66959779E-15
  4.36149261E-16  2.04585049E-15 -1.54829230E-15 -3.15011904E-15 -4.28056670E-15
  1.58807782E-03 -8.01107875E-01 -4.71090435E-01 -8.53139137E-01  3.92192951E-01
 -4.77850527E-16  2.72698431E-16 -3.17556269E-01 -2.26291858E-15 -7.86483249E-16
  6.33602412E-01  9.16928464E-01 -6.96105641E-15 -2.82100638E-15  4.39581668E-15
  1.49786218E-15 -4.71090435E-01 -8.53139137E-01  3.92192951E-01  2.76943347E-15
  6.65349683E-16  3.17556269E-01  1.89679018E-15  9.40011855E-16 -6.33602412E-01
  9.16928464E-01 -2.56430581E-15 -4.97091716E-16 -3.25558602E-15 -1.41542092E-15
  4.01577375E-15  8.77497493E-15 -2.87998973E-14  3.87746274E-01  1.46251265E-02
  4.80350149E-15  5.20325425E-01  1.96257854E-02 -1.02572015E-14  8.45790512E-15
  1.19829684E+00  4.51977080E-02 -3.42304521E-15  2.14466121E-15 -7.65854801E-15
 -1.54882723E-14  3.12879080E-14 -3.87746274E-01 -1.46251265E-02  8.05816080E-15
 -5.20325425E-01 -1.96257854E-02 -1.59787910E-14 -8.92655803E-16  1.19829684E+00
  4.51977080E-02 -2.59987452E-16 -2.58543344E-15 -4.50396839E-15 -1.01239806E-14
  1.41744733E-14 -1.46251265E-02  3.87746274E-01 -7.51594589E-15 -1.96257854E-02
  5.20325425E-01  6.48794850E-15 -4.21535361E-15 -4.51977080E-02  1.19829684E+00
  3.92675031E-15  8.30607003E-16  3.28301338E-15  7.95529725E-15 -1.29341791E-14
  1.46251265E-02 -3.87746274E-01 -6.36906450E-15  1.96257854E-02 -5.20325425E-01
  5.14545194E-15  6.67474963E-15 -4.51977080E-02  1.19829684E+00 -4.51662340E-15
  1.66334022E-16  3.65629561E-01  8.25366115E-01  3.04143452E+00 -5.24317543E-15
  4.19999608E-16  1.34902528E+00 -2.54228012E-15  8.59453941E-15  1.44051145E+00
  1.17478850E+00 -5.99830033E-15  7.89650467E-15  5.61674961E-15 -7.25419120E-17
 -3.65629561E-01 -8.25366115E-01 -3.04143452E+00  3.26206436E-15 -1.27749604E-15
  1.34902528E+00  1.73371845E-15 -6.80482345E-15  1.44051145E+00 -1.17478850E+00
 -8.64965596E-15  7.10870272E-15 -3.91312440E-15  1.32231953E-17
Total SCF Density                          R   N=         406
  2.00459070E+00 -1.94377019E-03  4.57382407E-01 -1.57069359E-02  4.30708895E-01
  4.61147181E-01  8.60785794E-16 -8.93065824E-16 -1.79808865E-14  3.70990277E-01
 -1.22297106E-15 -6.48123889E-16  1.53225645E-14  1.62370117E-15  3.70990277E-01
 -4.45811818E-03 -8.24735660E-03 -9.18394813E-02  6.42698859E-15 -2.22109980E-15
  1.27846963E-01 -2.26788911E-16 -7.11046692E-16 -1.01567654E-14  2.09651386E-01
  1.58206781E-15  3.34823740E-15  1.18476700E-01 -7.05809597E-16 -3.58906888E-17
  8.94231641E-15  2.14411822E-15  2.09651386E-01 -1.22441697E-15  1.58900670E-15
  1.18476700E-01 -6.09314222E-03 -7.10256191E-02 -1.01709297E-01 -3.28397771E-15
  5.95701627E-15  5.42715469E-02 -1.94011529E-15  3.32894807E-15  3.30382258E-02
 -9.02733448E-05  9.49776981E-03  2.36651561E-03 -3.84407360E-16  4.70382009E-16
  9.81729782E-03 -2.44038270E-16  2.75469494E-16  2.66989629E-03  9.78605706E-04
 -6.64976918E-16 -3.65792312E-16 -1.88876238E-15  3.37901010E-02 -4.16333634E-17
  5.72970507E-16  1.90952215E-02  8.76035355E-17 -2.60901093E-16 -4.24238096E-17
  3.07763032E-03 -8.68072311E-16 -8.97816462E-17  1.44248740E-15  2.60208521E-17
  3.37901010E-02 -2.96828120E-16  7.45931095E-17  1.90952215E-02  5.12201841E-16
  3.48003385E-17 -1.49619900E-17  3.07763032E-03 -3.33156281E-16 -3.95245517E-16
 -4.05202135E-16  6.63129976E-17  5.23633696E-17  6.67873743E-17  3.74743295E-17
  2.95912149E-17  8.82000447E-17 -3.51601500E-18  6.03984262E-18  4.76929897E-18
  6.34658615E-31 -1.92677230E-16  2.57781004E-16  2.52292500E-16 -3.71930796E-16
  7.63469251E-17 -1.81666804E-17 -2.10182886E-16  4.31446312E-17 -4.55717209E-17
  4.24579127E-18 -3.38757643E-17  6.95374103E-18 -3.06023646E-31  5.68498717E-31
 -3.18346907E-03 -1.34238257E-02  5.46199765E-04 -4.35890224E-16  1.08467498E-15
 -2.62319869E-03  3.82030448E-16 -5.50752702E-17  5.16279188E-03 -2.60703399E-04
 -2.05465036E-16  1.32409223E-15  6.29120520E-16 -1.79133949E-16  2.00459070E+00
 -1.34238257E-02  2.37140345E-02 -1.36499901E-01 -6.67931902E-16  8.21133462E-16
  2.40917249E-01 -9.28419383E-16  5.49211142E-16  9.64879507E-02  1.93702068E-02
 -1.07291125E-16 -1.02141804E-16  9.43487876E-17 -1.20786079E-17 -1.94377019E-03
  4.57382407E-01  5.46199765E-04 -1.36499901E-01 -2.81210458E-01  9.78732212E-15
 -1.24521316E-14  2.34125067E-01  5.06365666E-15 -7.06414453E-15  1.17280830E-01
  1.52857184E-02  9.42772596E-16 -1.30938167E-15  2.20367475E-16 -1.00987774E-16
 -1.57069359E-02  4.30708895E-01  4.61147181E-01  6.14145518E-16  8.28171784E-16
 -1.57792458E-14  3.70990277E-01 -1.52655666E-16  5.52168795E-15  2.09651386E-01
  1.13797860E-15 -3.91234197E-15 -4.17027686E-16  3.37901010E-02 -1.37043155E-16
  6.63129976E-17 -3.71930796E-16  5.30679413E-17 -2.22928709E-15  7.68274309E-15
  3.70990277E-01 -5.46673299E-16 -9.51946531E-16  1.47948566E-14 -2.91433544E-16
  3.70990277E-01 -1.86651844E-15  4.99600361E-16  2.09651386E-01  6.14524564E-15
  4.91354240E-16 -2.16840434E-16  3.37901010E-02  5.23633696E-17  7.63469251E-17
  1.94710084E-17  1.46130528E-15 -1.17176440E-14 -2.06779038E-15  3.70990277E-01
  2.62319869E-03 -2.40917249E-01 -2.34125067E-01 -6.29631128E-15  2.66080906E-15
  1.53221060E-02 -3.47558292E-15  1.33355972E-15  4.19573671E-02 -4.14405506E-03
 -4.25682518E-16  2.48178882E-16  2.12258114E-16 -1.36930496E-16  4.45811818E-03
  8.24735660E-03  9.18394813E-02 -7.27897832E-15  2.85279012E-15  1.27846963E-01
  6.64516519E-17  3.50928687E-16 -9.10400285E-15  2.09651386E-01  1.07552856E-15
  3.23108266E-15  1.18476700E-01  1.30451205E-15 -2.14988773E-15 -2.29808473E-16
  1.90952215E-02  2.86229374E-17  3.74743295E-17 -2.10182886E-16 -1.30674293E-15
 -1.06273878E-15  4.58212537E-15  2.09651386E-01 -6.93889390E-18 -4.04113507E-15
  1.18476700E-01  1.10430100E-16 -7.25577285E-16  8.15659132E-15 -3.53883589E-16
  2.09651386E-01 -1.01210472E-15  1.80411242E-16  1.18476700E-01  3.51797598E-15
  2.76953398E-16 -1.39645240E-16  1.90952215E-02  2.95912149E-17  4.31446312E-17
  3.54607275E-16  8.90054140E-16 -6.49524943E-15 -1.36002321E-15  2.09651386E-01
  1.71436819E-15 -1.11022302E-16  1.18476700E-01 -5.16279188E-03 -9.64879507E-02
 -1.17280830E-01 -9.16297634E-15  7.65090406E-15  4.19573671E-02 -5.22233759E-15
  4.26415347E-15  3.16906091E-02  1.14207387E-03 -7.78905497E-16  6.77501220E-16
  1.04141939E-16 -5.85969587E-17  6.09314221E-03  7.10256191E-02  1.01709297E-01
 -9.79978800E-15  7.82130983E-15  5.42715469E-02 -5.48128668E-15  4.47171518E-15
  3.30382258E-02 -2.60703399E-04  1.93702068E-02  1.52857184E-02  7.52831231E-16
 -5.53312389E-16  4.14405506E-03  4.06765199E-16 -2.97590691E-16 -1.14207387E-03
  7.53767344E-04  5.58617394E-17 -5.46836599E-17 -1.44574210E-17  1.03935801E-17
 -9.02733447E-05  9.49776981E-03  2.36651561E-03  7.95115857E-16 -5.54210083E-16
 -9.81729782E-03  4.47809096E-16 -3.19660048E-16 -2.66989629E-03  9.78605706E-04
  3.97337241E-16 -4.36024834E-16  1.12221560E-15 -3.37901010E-02 -2.60208521E-16
 -5.30355569E-16 -1.90952215E-02 -2.59341160E-16  3.99513783E-16  2.80383817E-17
 -3.07763032E-03 -1.26851654E-17 -6.03984262E-18  3.38757643E-17  1.07859044E-15
  1.21349007E-16 -6.59642320E-16 -3.37901010E-02 -8.84708973E-17  8.49175168E-16
 -1.90952215E-02 -3.20923843E-17  9.59244777E-16 -8.85798042E-17  3.07763032E-03
 -1.08763992E-15  1.24674410E-16 -1.26755864E-15 -1.02348685E-16 -3.37901010E-02
  1.20633859E-16 -1.18828558E-16 -1.90952215E-02 -5.82258834E-16 -4.78881692E-17
  8.02309608E-18 -3.07763032E-03 -4.76929897E-18 -6.95374103E-18  4.61250383E-16
 -2.19439728E-16  9.59648755E-16  5.89805982E-17 -3.37901010E-02 -2.85692034E-16
 -7.28583860E-17 -1.90952215E-02 -7.32395529E-16  5.05176145E-17  1.97324795E-17
  3.07763032E-03 -3.40537203E-16 -4.18363948E-17 -7.47904534E-17  2.65794949E-16
  9.72184514E-17  5.83546712E-17  1.50204151E-16  5.49393996E-17  3.10451265E-17
  3.57898839E-18  2.42088236E-17  8.85473689E-18  1.63188342E-31 -2.38860606E-31
 -5.56706070E-17  1.07393007E-16  1.16015936E-16  2.65794949E-16  9.72184514E-17
  2.67190067E-17  1.50204151E-16  5.49393996E-17  2.75524544E-17  2.42209469E-19
 -2.42088236E-17 -8.85473689E-18  3.04515117E-31  2.20636713E-16 -2.09882410E-16
 -1.88615277E-16  2.30526349E-16  2.46631789E-16 -1.07135460E-17  1.30273410E-16
  1.39374802E-16  2.65803622E-17 -5.43087882E-18  2.09965304E-17  2.24634271E-17
  2.86808384E-31 -3.38332701E-31  2.41405799E-16 -3.83227284E-17  3.55203817E-17
  2.30526349E-16  2.46631789E-16  1.09244850E-16  1.30273410E-16  1.39374802E-16
  3.97433312E-17 -9.33293541E-18 -2.09965304E-17 -2.24634271E-17  1.98809679E-31
  4.56761772E-31
QEq coupling tensors                       R   N=          12
  4.29085369E-01  8.04044058E-15  4.29085369E-01  2.99298688E-14 -1.14150964E-14
 -8.58170738E-01  4.29085369E-01 -7.45665882E-15  4.29085369E-01 -3.23694886E-14
  1.21157952E-14 -8.58170738E-01
Mulliken Charges                           R   N=           2
 -1.30195854E-12  1.30295774E-12
ONIOM Charges                              I   N=          16
           0           0           0           0           0           0
           0           0           0           0           0           0
           0           0           0           0
ONIOM Multiplicities                       I   N=          16
           1           0           0           0           0           0
           0           0           0           0           0           0
           0           0           0           0