HF file generated by AutoMR of MOKIT
Stability RHF                                                         CC-pVDZ
Number of atoms                            I                2
Info1-9                                    I   N=           9
          12          11           0           0           0         110
           7           1           2
Charge                                     I                0
Multiplicity                               I                1
Number of electrons                        I               12
Number of alpha electrons                  I                6
Number of beta electrons                   I                6
Number of basis functions                  I               28
Number of independent functions            I               28
Number of point charges in /Mol/           I                0
Number of translation vectors              I                0
Atomic numbers                             I   N=           2
           6           6
Nuclear charges                            R   N=           2
  6.00000000E+00  6.00000000E+00
Current cartesian coordinates              R   N=           6
  0.00000000E+00  0.00000000E+00  0.00000000E+00  0.00000000E+00  0.00000000E+00
  2.34326040E+00
Force Field                                I                0
Int Atom Types                             I   N=           2
           0           0
MM charges                                 R   N=           2
  0.00000000E+00  0.00000000E+00
Integer atomic weights                     I   N=           2
          12          12
Real atomic weights                        R   N=           2
  1.20000000E+01  1.20000000E+01
Atom fragment info                         I   N=           2
           0           0
Atom residue num                           I   N=           2
           0           0
Nuclear spins                              I   N=           2
           0           0
Nuclear ZEff                               R   N=           2
 -3.60000000E+00 -3.60000000E+00
Nuclear QMom                               R   N=           2
  0.00000000E+00  0.00000000E+00
Nuclear GFac                               R   N=           2
  0.00000000E+00  0.00000000E+00
MicOpt                                     I   N=           2
          -1          -1
Number of contracted shells                I               12
Number of primitive shells                 I               44
Pure/Cartesian d shells                    I                0
Pure/Cartesian f shells                    I                0
Highest angular momentum                   I                2
Largest degree of contraction              I                8
Shell types                                I   N=          12
           0           0           0           1           1          -2
           0           0           0           1           1          -2
Number of primitives per shell             I   N=          12
           8           8           1           3           1           1
           8           8           1           3           1           1
Shell to atom map                          I   N=          12
           1           1           1           1           1           1
           2           2           2           2           2           2
Primitive exponents                        R   N=          44
  6.66500000E+03  1.00000000E+03  2.28000000E+02  6.47100000E+01  2.10600000E+01
  7.49500000E+00  2.79700000E+00  5.21500000E-01  6.66500000E+03  1.00000000E+03
  2.28000000E+02  6.47100000E+01  2.10600000E+01  7.49500000E+00  2.79700000E+00
  5.21500000E-01  1.59600000E-01  9.43900000E+00  2.00200000E+00  5.45600000E-01
  1.51700000E-01  5.50000000E-01  6.66500000E+03  1.00000000E+03  2.28000000E+02
  6.47100000E+01  2.10600000E+01  7.49500000E+00  2.79700000E+00  5.21500000E-01
  6.66500000E+03  1.00000000E+03  2.28000000E+02  6.47100000E+01  2.10600000E+01
  7.49500000E+00  2.79700000E+00  5.21500000E-01  1.59600000E-01  9.43900000E+00
  2.00200000E+00  5.45600000E-01  1.51700000E-01  5.50000000E-01
Contraction coefficients                   R   N=          44
  6.91583963E-04  5.32579615E-03  2.70607210E-02  1.01656846E-01  2.74574824E-01
  4.48294319E-01  2.84902611E-01  1.51948592E-02 -2.93269653E-04 -2.31803547E-03
 -1.14997860E-02 -4.68267270E-02 -1.28466169E-01 -3.01266272E-01 -2.55630702E-01
  1.09379336E+00  1.00000000E+00  5.69792516E-02  3.13207212E-01  7.60376742E-01
  1.00000000E+00  1.00000000E+00  6.91583963E-04  5.32579615E-03  2.70607210E-02
  1.01656846E-01  2.74574824E-01  4.48294319E-01  2.84902611E-01  1.51948592E-02
 -2.93269653E-04 -2.31803547E-03 -1.14997860E-02 -4.68267270E-02 -1.28466169E-01
 -3.01266272E-01 -2.55630702E-01  1.09379336E+00  1.00000000E+00  5.69792516E-02
  3.13207212E-01  7.60376742E-01  1.00000000E+00  1.00000000E+00
Coordinates of each shell                  R   N=          36
  0.00000000E+00  0.00000000E+00  0.00000000E+00  0.00000000E+00  0.00000000E+00
  0.00000000E+00  0.00000000E+00  0.00000000E+00  0.00000000E+00  0.00000000E+00
  0.00000000E+00  0.00000000E+00  0.00000000E+00  0.00000000E+00  0.00000000E+00
  0.00000000E+00  0.00000000E+00  0.00000000E+00  0.00000000E+00  0.00000000E+00
  2.34326040E+00  0.00000000E+00  0.00000000E+00  2.34326040E+00  0.00000000E+00
  0.00000000E+00  2.34326040E+00  0.00000000E+00  0.00000000E+00  2.34326040E+00
  0.00000000E+00  0.00000000E+00  2.34326040E+00  0.00000000E+00  0.00000000E+00
  2.34326040E+00
Constraint Structure                       R   N=           6
  0.00000000E+00  0.00000000E+00  0.00000000E+00  0.00000000E+00  0.00000000E+00
  2.34326040E+00
Num ILSW                                   I              100
ILSW                                       I   N=         100
           0           0           0           0           2           1
           0           0           0           0           0          -1
           0           0           0           0           0           0
           0           0           0           0           0           0
           1           1           0           0           0           0
           0           0      100000           0          -1           0
           0           0           0           0           0           0
           0           0           0           1           0           0
           0           0           1           0           0           0
           0           0           4          40           0           0
           0           0           0           0           0           0
           0           0           0           0           0           0
           0           0           0           0           0           0
           0           0           0           0           0           0
           0           0           0           0           0           0
           0           0           0           0           0           0
           0           0           0           0
Num RLSW                                   I               40
RLSW                                       R   N=          40
  1.00000000E+00  1.00000000E+00  1.00000000E+00  1.00000000E+00  1.00000000E+00
  0.00000000E+00  0.00000000E+00  1.00000000E+00  0.00000000E+00  0.00000000E+00
  0.00000000E+00  0.00000000E+00  1.00000000E+00  0.00000000E+00  0.00000000E+00
  0.00000000E+00  0.00000000E+00  1.00000000E+00  0.00000000E+00  0.00000000E+00
  0.00000000E+00  0.00000000E+00  1.00000000E+00  0.00000000E+00  0.00000000E+00
  0.00000000E+00  0.00000000E+00  1.00000000E+00  0.00000000E+00  0.00000000E+00
  0.00000000E+00  0.00000000E+00  1.00000000E+00  0.00000000E+00  0.00000000E+00
  0.00000000E+00  0.00000000E+00  0.00000000E+00  1.00000000E+00  1.00000000E+00
MxBond                                     I                1
NBond                                      I   N=           2
           1           1
IBond                                      I   N=           2
           2           1
RBond                                      R   N=           2
  3.00000000E+00  3.00000000E+00
Virial Ratio                               R      1.996773200146660E+00
SCF Energy                                 R     -7.548564491065345E+01
Total Energy                               R     -7.548564491065345E+01
S**2                                       R      1.230099081622202E+00
S**2 after annihilation                    R      1.534696883971831E+00
RMS Density                                R      2.891589065395345E-09
External E-field                           R   N=          35
  0.00000000E+00  0.00000000E+00  0.00000000E+00  0.00000000E+00  0.00000000E+00
  0.00000000E+00  0.00000000E+00  0.00000000E+00  0.00000000E+00  0.00000000E+00
  0.00000000E+00  0.00000000E+00  0.00000000E+00  0.00000000E+00  0.00000000E+00
  0.00000000E+00  0.00000000E+00  0.00000000E+00  0.00000000E+00  0.00000000E+00
  0.00000000E+00  0.00000000E+00  0.00000000E+00  0.00000000E+00  0.00000000E+00
  0.00000000E+00  0.00000000E+00  0.00000000E+00  0.00000000E+00  0.00000000E+00
  0.00000000E+00  0.00000000E+00  0.00000000E+00  0.00000000E+00  0.00000000E+00
IOpCl                                      I                0
IROHF                                      I                0
Alpha Orbital Energies                     R   N=          28
  1.99999992E+00  1.99999940E+00  1.99952747E+00  1.99749381E+00  1.87843968E+00
  1.06478367E+00  9.35216325E-01  1.21560319E-01  2.50618651E-03  4.72528910E-04
  0.00000000E+00  0.00000000E+00  0.00000000E+00  0.00000000E+00  0.00000000E+00
  0.00000000E+00  0.00000000E+00  0.00000000E+00  0.00000000E+00  0.00000000E+00
  0.00000000E+00  0.00000000E+00  0.00000000E+00  0.00000000E+00  0.00000000E+00
  0.00000000E+00  0.00000000E+00  0.00000000E+00
Alpha MO coefficients                      R   N=         784
  7.07452345E-01 -8.85855594E-03 -7.57286343E-03 -9.98748454E-05 -9.10734642E-05
 -4.95679622E-03  8.72053468E-05  7.95204538E-05 -1.08319928E-03 -2.45805821E-04
  2.32831426E-05  2.12313365E-05 -7.93720176E-06 -8.59169287E-05  7.07452344E-01
 -8.85855594E-03 -7.57286342E-03 -9.98748454E-05 -9.10734642E-05  4.95679622E-03
  8.72053467E-05  7.95204537E-05  1.08319928E-03 -2.45805821E-04 -2.32831425E-05
 -2.12313364E-05 -7.93720176E-06 -8.59169287E-05  7.08804213E-01  1.57069956E-03
 -8.99383962E-03  1.05267302E-04  9.59907151E-05  2.39911573E-03  3.38796784E-04
  3.08940621E-04 -2.16312511E-03  8.46025811E-04  4.81558995E-04  4.39122040E-04
 -7.19924388E-06 -7.79288397E-05 -7.08804213E-01 -1.57069956E-03  8.99383962E-03
 -1.05267302E-04 -9.59907151E-05  2.39911572E-03 -3.38796784E-04 -3.08940621E-04
 -2.16312511E-03 -8.46025811E-04  4.81558995E-04  4.39122041E-04  7.19924389E-06
  7.79288397E-05  2.51943482E-14  9.57291385E-15  7.78603762E-15 -2.82288666E-01
  3.09569171E-01  4.46225545E-15 -1.69602186E-01  1.85992618E-01  1.46182996E-15
  6.50509281E-16 -3.13201357E-02  3.43469279E-02  6.07224954E-17 -4.64093357E-17
  1.82720631E-14  7.75970540E-15  1.09993344E-15 -2.82288666E-01  3.09569171E-01
 -6.18877910E-15 -1.69602186E-01  1.85992618E-01  2.58688752E-16  7.84271114E-16
  3.13201357E-02 -3.43469279E-02 -1.56143560E-17 -4.92828110E-17  4.97249670E-03
  3.34537319E-01  1.97817954E-01  7.28379003E-15 -8.01472936E-15  2.02897248E-01
  4.33605684E-15 -4.80819753E-15  2.58251881E-02  2.72880015E-02  8.85263806E-16
 -8.38396898E-16 -1.86394014E-04 -2.01763818E-03  4.97249670E-03  3.34537319E-01
  1.97817954E-01  7.26518430E-15 -7.96786245E-15 -2.02897248E-01  4.25577556E-15
 -4.87719604E-15 -2.58251881E-02  2.72880015E-02 -6.76098534E-16  9.82469243E-16
 -1.86394014E-04 -2.01763818E-03 -1.16016015E-03 -3.14862376E-01 -4.43624401E-01
 -4.43913454E-16  1.60381635E-15  2.14130037E-01  3.57994721E-16  1.21718205E-15
  1.14732783E-01  1.42218996E-02 -5.19092345E-17  7.51788914E-17 -6.40782684E-04
 -6.93620776E-03  1.16016015E-03  3.14862376E-01  4.43624401E-01 -6.30070709E-16
  1.19570237E-15  2.14130037E-01 -6.80189970E-16  4.86872820E-16  1.14732783E-01
 -1.42218996E-02  1.86157255E-16  8.94986802E-18  6.40782684E-04  6.93620776E-03
  1.31692401E-03 -9.29818925E-02 -3.20096528E-01 -5.70592164E-16  3.80394776E-17
  4.68044745E-01 -1.90197388E-17  3.80394776E-17  2.06750162E-01  3.29961219E-02
 -1.89008654E-16 -2.61521409E-16 -8.43132278E-04 -9.12655851E-03  1.31692401E-03
 -9.29818925E-02 -3.20096528E-01  7.98829030E-16  0.00000000E+00 -4.68044745E-01
  8.65398116E-16 -4.75493470E-17 -2.06750162E-01  3.29961219E-02  6.53803522E-17
  4.63606134E-17 -8.43132278E-04 -9.12655851E-03 -9.54873938E-16 -1.46120684E-15
  1.06546332E-14  3.30473941E-01  3.01351222E-01  1.21767237E-16  1.72526324E-01
  1.57322597E-01  3.73419527E-15  4.13501242E-16  1.64749174E-02  1.50230800E-02
  1.33975671E-17  1.14790989E-16 -4.85166335E-17 -6.59572533E-16 -8.15840487E-15
  3.30473941E-01  3.01351222E-01  1.21767237E-16  1.72526324E-01  1.57322597E-01
  4.22126421E-15 -2.43534474E-16 -1.64749174E-02 -1.50230800E-02 -3.25029734E-17
  2.79049918E-17  1.36813630E-15  2.47680606E-15 -5.57281363E-14  3.96565546E-01
  3.61618563E-01 -2.42051501E-15  3.19062427E-01  2.90945337E-01 -2.97216727E-14
 -3.16285319E-15 -8.59223879E-02 -7.83505545E-02  3.67211126E-17  5.10137612E-17
 -2.54453123E-15 -5.96685096E-15  5.82049424E-14 -3.96565546E-01 -3.61618563E-01
 -2.64567920E-15 -3.19062427E-01 -2.90945337E-01 -3.20577512E-14  2.52606073E-15
 -8.59223879E-02 -7.83505545E-02  2.13510181E-16  1.93500473E-17  7.95102768E-15
 -3.13630676E-15  1.94058981E-13 -8.86654725E-03 -8.08519083E-03  1.99939556E-14
 -1.31141925E-01 -1.19585161E-01  9.61964088E-14  1.35253229E-14  4.34095880E-01
  3.95841570E-01 -6.33540090E-15  2.86065480E-15 -2.60950523E-15  1.17611503E-14
 -1.94451019E-13 -8.86654725E-03 -8.08519083E-03  1.13691120E-14 -1.31141925E-01
 -1.19585161E-01  1.00508831E-13 -1.41623852E-14 -4.34095880E-01 -3.95841570E-01
 -6.22743722E-15  6.55439107E-16 -1.79540427E-10 -4.22783516E-10  3.58423124E-10
  4.69487887E-14 -3.61144529E-14  7.90222867E-11 -2.25715331E-14 -2.52801170E-14
 -2.25252207E-11  2.65283676E-11  2.00886644E-14  2.05400951E-14  6.37231703E-01
 -5.88689172E-02 -1.79552384E-10 -4.22802282E-10  3.58723732E-10 -9.02861322E-15
  1.44457812E-14 -7.90422384E-11 -7.22289058E-15  0.00000000E+00  2.23738645E-11
  2.65438545E-11 -2.88915623E-14 -1.51229271E-14  6.37231703E-01 -5.88689172E-02
  4.14705121E-01  8.04490789E-01 -8.96860833E+00 -5.20944985E-07 -4.75037176E-07
 -5.16702905E-01 -9.05188466E-06 -8.25419545E-06 -4.27325139E+00 -6.40845568E-01
 -8.94372632E-06 -8.15556846E-06  5.01101378E-05  5.42421535E-04 -4.14705121E-01
 -8.04490789E-01  8.96860833E+00  5.20944987E-07  4.75037178E-07 -5.16702905E-01
  9.05188465E-06  8.25419544E-06 -4.27325139E+00  6.40845568E-01 -8.94372634E-06
 -8.15556848E-06 -5.01101379E-05 -5.42421535E-04  5.97252257E-01  1.37021997E+00
  3.36526327E-02  2.08182590E-05  1.89836686E-05  1.23614941E+00 -4.42063796E-04
 -4.03107320E-04  1.89625739E-01  9.16625042E-01 -3.57599779E-04 -3.26086620E-04
 -4.75787900E-05 -5.15020741E-04 -5.97252257E-01 -1.37021997E+00 -3.36526327E-02
 -2.08182590E-05 -1.89836686E-05  1.23614941E+00  4.42063796E-04  4.03107320E-04
  1.89625739E-01 -9.16625042E-01 -3.57599779E-04 -3.26086620E-04  4.75787900E-05
  5.15020741E-04 -6.48285517E-01 -1.34390481E+00  8.54091971E-01 -3.22274100E-05
 -2.93873983E-05 -2.06204471E-01  2.81392421E-05  2.56594967E-05  6.51923852E-01
  6.17538187E-01  7.51295659E-06  6.85088404E-06 -7.57114419E-05 -8.19543249E-04
 -6.48285517E-01 -1.34390481E+00  8.54091971E-01 -3.22274100E-05 -2.93873983E-05
  2.06204471E-01  2.81392422E-05  2.56594967E-05 -6.51923852E-01  6.17538187E-01
 -7.51295661E-06 -6.85088404E-06 -7.57114419E-05 -8.19543249E-04 -3.36586903E-15
 -7.23748325E-14  1.89845284E-15  1.02638782E-01 -1.12557841E-01 -9.44127659E-14
 -9.76316158E-01  1.07066780E+00  7.45172081E-15 -6.21355026E-14 -5.36190684E-01
  5.88008397E-01 -9.05163689E-16  1.66377406E-16  8.27936688E-15  8.24807280E-14
 -7.89097514E-15 -1.02638782E-01  1.12557841E-01 -9.63809407E-14  9.76316158E-01
 -1.07066780E+00  1.33704071E-14  5.71604591E-14 -5.36190684E-01  5.88008397E-01
 -7.68644368E-16  4.17574933E-17  6.06760402E-05 -4.75478077E-04  3.87834145E-05
  2.33404097E-01  2.12835571E-01 -7.17310897E-04 -1.05743005E+00 -9.64244977E-01
  1.57059022E-04 -4.10443427E-04 -5.41112470E-01 -4.93427419E-01 -7.08597335E-09
 -7.67026933E-08 -6.06760402E-05  4.75478077E-04 -3.87834145E-05 -2.33404097E-01
 -2.12835571E-01 -7.17310897E-04  1.05743005E+00  9.64244977E-01  1.57059022E-04
  4.10443427E-04 -5.41112470E-01 -4.93427419E-01  7.08596618E-09  7.67026941E-08
 -4.59339761E-02 -2.63971672E-01  5.42854196E-01 -5.81108892E-06 -5.29899192E-06
  5.87881219E-01  5.07393050E-06  4.62679492E-06 -9.69422776E-01 -3.26244303E-01
  1.35469959E-06  1.23531790E-06 -3.20227035E-05 -3.46630936E-04 -4.59339761E-02
 -2.63971672E-01  5.42854196E-01 -5.81108892E-06 -5.29899192E-06 -5.87881219E-01
  5.07393050E-06  4.62679492E-06  9.69422776E-01 -3.26244303E-01 -1.35469959E-06
 -1.23531790E-06 -3.20227035E-05 -3.46630936E-04 -4.12291138E-14 -4.07848546E-14
  8.72411506E-15  5.22626965E-01 -5.73133873E-01  9.43526865E-14 -2.55365683E-01
  2.80044339E-01 -8.85114134E-14  2.18503534E-14  5.65021823E-01 -6.19625789E-01
 -1.02074642E-14  1.21779792E-15  4.09515955E-14  3.99787903E-14 -7.87696219E-15
 -5.22626965E-01  5.73133873E-01  9.35810727E-14  2.55365683E-01 -2.80044339E-01
 -8.76619156E-14 -2.21762306E-14  5.65021823E-01 -6.19625789E-01 -1.03652806E-14
  5.87830120E-16  5.17721267E-04  6.88162088E-04 -1.36359453E-04 -5.09349536E-01
 -4.64463565E-01 -1.23329101E-03  1.90176836E-01  1.73417673E-01  1.25717646E-03
 -2.44189818E-04 -7.02678844E-01 -6.40755901E-01 -4.27794262E-07 -4.63069615E-06
 -5.17721267E-04 -6.88162088E-04  1.36359453E-04  5.09349536E-01  4.64463565E-01
 -1.23329101E-03 -1.90176836E-01 -1.73417673E-01  1.25717646E-03  2.44189818E-04
 -7.02678844E-01 -6.40755901E-01  4.27794269E-07  4.63069615E-06 -2.15366834E-01
 -5.75385140E-01  1.09937493E-01 -7.54559871E-04 -6.88064960E-04  6.42965252E-01
  3.30620708E-05  3.01485055E-05 -7.92698247E-01  6.90719105E-02 -1.26216334E-03
 -1.15093633E-03  3.17536833E-04  3.43720500E-03  2.15366834E-01  5.75385140E-01
 -1.09937493E-01  7.54559871E-04  6.88064960E-04  6.42965252E-01 -3.30620708E-05
 -3.01485055E-05 -7.92698247E-01 -6.90719105E-02 -1.26216334E-03 -1.15093633E-03
 -3.17536833E-04 -3.43720500E-03  3.28571405E-14 -3.43096134E-14  2.15428802E-14
  4.78638071E-01 -5.24893873E-01 -2.08354693E-15 -4.06477067E-01  4.45759197E-01
  1.08504562E-14  1.22133128E-14 -9.38467393E-02  1.02916131E-01  3.50773221E-15
 -5.57562329E-16  3.27815676E-14 -3.42323659E-14  2.35958854E-14  4.78638071E-01
 -5.24893873E-01  2.89040869E-15 -4.06477067E-01  4.45759197E-01 -1.24841482E-14
  1.20825351E-14  9.38467393E-02 -1.02916131E-01  3.19564322E-15 -3.41468764E-16
 -9.64896983E-05  8.97010898E-05 -5.89080578E-05 -5.13291060E-01 -4.68057746E-01
  7.38421790E-06  4.48178164E-01  4.08682865E-01 -3.15336886E-05 -3.13098905E-05
  1.19660049E-01  1.09115115E-01  3.51192933E-08  3.80151601E-07 -9.64896983E-05
  8.97010898E-05 -5.89080578E-05 -5.13291060E-01 -4.68057746E-01 -7.38421790E-06
  4.48178164E-01  4.08682865E-01  3.15336886E-05 -3.13098905E-05 -1.19660049E-01
 -1.09115115E-01  3.51192931E-08  3.80151600E-07  2.76148165E-14 -1.96695365E-14
  3.86573518E-15 -2.69371916E-17  1.12899237E-16 -1.38959615E-15  3.46371961E-17
 -1.19449710E-16 -1.22315626E-14 -2.23753361E-15  1.61023621E-17 -5.75990510E-18
  7.97712649E-01 -7.36945129E-02 -2.75254276E-14  2.01107518E-14 -3.75782773E-15
 -6.69374892E-17  8.28869719E-17 -7.79457833E-16  1.22507931E-17 -1.64699086E-16
 -1.17369513E-14  2.71779967E-15 -1.57437266E-16 -1.21141790E-16 -7.97712649E-01
  7.36945129E-02 -1.06050423E-03 -2.21837670E-04 -1.78507451E-03 -3.33732465E-07
 -3.04322591E-07 -5.22034135E-04 -5.96924596E-07 -5.44321152E-07 -7.50253805E-03
 -2.42255838E-04 -1.10223626E-06 -1.00510268E-06 -7.36909693E-02 -7.97674291E-01
  1.06050423E-03  2.21837670E-04  1.78507451E-03  3.33732465E-07  3.04322591E-07
 -5.22034135E-04  5.96924596E-07  5.44321152E-07 -7.50253805E-03  2.42255838E-04
 -1.10223626E-06 -1.00510268E-06  7.36909693E-02  7.97674291E-01  9.40090587E-03
 -9.86757546E-02  9.83385954E-02 -3.18245631E-06 -2.90200520E-06 -2.01641736E-02
  2.77874979E-06  2.53387496E-06  2.88646533E-01 -6.00165743E-01  7.41904368E-07
  6.76524709E-07 -4.20436091E-05 -4.55103993E-04  9.40090587E-03 -9.86757546E-02
  9.83385954E-02 -3.18245631E-06 -2.90200520E-06  2.01641736E-02  2.77874979E-06
  2.53387496E-06 -2.88646533E-01 -6.00165743E-01 -7.41904367E-07 -6.76524708E-07
 -4.20436091E-05 -4.55103993E-04 -2.87749083E-02  1.35432412E-01 -3.02412306E-03
 -6.94724062E-06 -6.33502123E-06  2.66796400E-01 -1.59441402E-05 -1.45390772E-05
  5.79893015E-02 -5.80745179E-01 -2.60745087E-05 -2.37767161E-05 -7.75881727E-05
 -8.39859908E-04  2.87749083E-02 -1.35432412E-01  3.02412306E-03  6.94724062E-06
  6.33502124E-06  2.66796400E-01  1.59441402E-05  1.45390772E-05  5.79893015E-02
  5.80745179E-01 -2.60745087E-05 -2.37767161E-05  7.75881727E-05  8.39859908E-04
 -3.26737136E-14  4.16560932E-15 -1.86690370E-15 -3.28816344E-01  3.60593305E-01
 -1.41335508E-14 -1.61513591E-01  1.77122338E-01  2.88947876E-15  3.61637959E-14
  2.31147283E-01 -2.53485462E-01  3.24021169E-14 -3.18397371E-15  3.27465767E-14
 -3.99192493E-15  2.33836208E-15  3.28816344E-01 -3.60593305E-01 -1.33460456E-14
  1.61513591E-01 -1.77122338E-01  3.10440910E-15 -3.62602795E-14  2.31147283E-01
 -2.53485462E-01  3.23616195E-14 -3.48277598E-15  7.22120379E-04  2.21636942E-03
  2.49546375E-03 -2.45891911E-07 -2.24222907E-07 -7.38617494E-03  2.14699600E-07
  1.95779390E-07 -3.56038349E-03 -7.47144424E-04  5.73231075E-08  5.22715600E-08
 -5.88625111E-02 -6.37162359E-01  7.22120379E-04  2.21636942E-03  2.49546375E-03
 -2.45891912E-07 -2.24222907E-07  7.38617494E-03  2.14699600E-07  1.95779390E-07
  3.56038349E-03 -7.47144424E-04 -5.73231078E-08 -5.22715598E-08 -5.88625111E-02
 -6.37162359E-01  1.93551481E-14 -5.70483044E-15  3.70051423E-15 -3.42738627E-02
  3.75861045E-02 -6.57360040E-16 -1.09928131E-01  1.20551635E-01  1.73896345E-15
  3.43636897E-15  3.98790909E-01 -4.37330244E-01 -6.63343709E-15  7.72600976E-16
  1.93320785E-14 -5.82239249E-15  3.10028662E-15 -3.42738627E-02  3.75861045E-02
  4.77611761E-16 -1.09928131E-01  1.20551635E-01 -1.25121455E-15  3.44193949E-15
 -3.98790909E-01  4.37330244E-01 -6.60712706E-15  8.97401659E-16
Total SCF Density                          R   N=         406
  2.00583789E+00 -6.42877933E-03  4.19142911E-01 -2.09818508E-02  4.26368031E-01
  5.57223756E-01  7.91438713E-06  2.10018025E-06 -3.80836816E-07  2.80591261E-01
  7.21693900E-06  1.91510375E-06 -3.47275913E-07 -6.41648091E-02  2.92446644E-01
 -1.40744596E-03 -3.73076100E-02 -2.57759790E-01  1.49521520E-06  1.36345070E-06
  4.01679443E-01  6.03668281E-04 -4.80731226E-07 -7.41495436E-06  1.64436604E-01
 -4.23313554E-02  7.61106663E-07  9.77715240E-02  5.50470555E-04 -4.38367217E-07
 -6.76151816E-06 -4.23313554E-02  1.72257938E-01  6.94034822E-07 -2.63667535E-02
  1.02643166E-01 -4.30270058E-03 -7.10584044E-02 -1.55816825E-01 -2.39043837E-07
 -2.17978312E-07  1.59653290E-01 -1.65464075E-06 -1.50882702E-06  7.15858129E-02
  1.13785489E-03  6.56350064E-03 -1.23265133E-02  2.27217290E-07  2.07193970E-07
  3.32305796E-02  5.30390313E-07  4.83650143E-07  1.17335306E-02  3.02817090E-03
  7.15605310E-04  1.10025853E-06 -9.01476623E-06  1.86186964E-02 -1.85295372E-02
  2.07981124E-06  9.80476504E-03 -1.23925606E-02 -2.13378465E-06  8.03376170E-07
  3.58544425E-03  6.52543234E-04  1.00329923E-06 -8.22034805E-06 -1.85295372E-02
  2.20422982E-02  1.89652974E-06 -1.23925606E-02  1.20944710E-02 -1.94574679E-06
  7.32579366E-07 -6.70100644E-04  3.70925510E-03 -2.30732750E-05  3.38028500E-04
  7.47943830E-04  6.97640230E-11  6.36161774E-11 -7.53429792E-04 -6.26249272E-09
 -5.71061612E-09 -3.33278190E-04 -5.69090529E-05 -7.30332521E-09 -6.65972622E-09
  1.93474939E-04 -2.49758666E-04  3.65901883E-03  8.09618289E-03  7.55166932E-10
  6.88618487E-10 -8.15556615E-03 -6.77888952E-08 -6.18150596E-08 -3.60759869E-03
 -6.16016981E-04 -7.90554769E-08 -7.20887839E-08 -4.30032379E-07  1.88859743E-04
 -3.78021371E-03 -1.22544052E-02  2.58405398E-03 -2.90541151E-04 -2.64937472E-04
 -7.27615399E-03 -3.56893782E-04 -3.25442838E-04  2.33029855E-03 -1.19882371E-03
 -6.49718457E-04 -5.92462601E-04 -5.45476725E-06 -5.90456007E-05  2.00583789E+00
 -1.22544052E-02  4.66823507E-02 -9.83387489E-02  1.43880723E-06  1.31201364E-06
  2.15971730E-01 -2.60932243E-06 -2.37937823E-06  6.46725909E-02  2.33812697E-02
 -1.92527858E-06 -1.75561513E-06 -4.19908080E-04 -4.54533145E-03 -6.42877933E-03
  4.19142911E-01  2.58405398E-03 -9.83387489E-02 -1.82463459E-01  3.40619096E-06
  3.10602343E-06  9.92049221E-02  4.77337773E-06  4.35272810E-06  3.53239868E-02
  1.14067573E-02  8.30948603E-06  7.57722003E-06 -3.20271367E-04 -3.46680520E-03
 -2.09818508E-02  4.26368031E-01  5.57223756E-01 -2.90541151E-04  1.43880723E-06
  3.40619096E-06  2.42357037E-01 -9.90296772E-02  4.85021749E-07  1.33674610E-01
 -7.03824764E-02  6.71781266E-07 -1.29018020E-07  2.69025519E-02 -1.09756890E-02
  3.10114300E-09  3.35685917E-08  7.91438713E-06  2.10018025E-06 -3.80836819E-07
  2.80591261E-01 -2.64937472E-04  1.31201363E-06  3.10602344E-06 -9.90296772E-02
  2.60654211E-01  4.42279642E-07 -7.03824764E-02  1.46678797E-01  6.12581145E-07
 -1.17648422E-07 -1.09756890E-02  2.89304703E-02  2.82785763E-09  3.06103897E-08
  7.21693900E-06  1.91510375E-06 -3.47275920E-07 -6.41648091E-02  2.92446644E-01
  7.27615399E-03 -2.15971730E-01 -9.92049221E-02 -4.85021748E-07 -4.42279642E-07
 -2.29397216E-01  2.49014313E-06  2.27070150E-06 -6.73760309E-02 -2.17815012E-02
  2.54145040E-06  2.31748736E-06  2.37876207E-04  2.57491164E-03  1.40744596E-03
  3.73076100E-02  2.57759790E-01 -1.49521520E-06 -1.36345070E-06  4.01679443E-01
 -3.56893782E-04 -2.60932243E-06  4.77337774E-06  1.33674610E-01 -7.03824764E-02
 -2.49014313E-06  7.30211816E-02 -4.89359942E-02  1.27679769E-06 -6.16132637E-07
  1.64691688E-02 -6.31545139E-03  3.49382705E-09  3.78192341E-08  6.03668281E-04
 -4.80731225E-07 -7.41495436E-06  1.64436604E-01 -4.23313554E-02 -7.61106663E-07
  9.77715240E-02 -3.25442838E-04 -2.37937823E-06  4.35272811E-06 -7.03824764E-02
  1.46678797E-01 -2.27070150E-06 -4.89359942E-02  8.20628190E-02  1.16428104E-06
 -5.61836502E-07 -6.31545139E-03  1.76360404E-02  3.18593673E-09  3.44864481E-08
  5.50470555E-04 -4.38367216E-07 -6.76151816E-06 -4.23313554E-02  1.72257938E-01
 -6.94034822E-07 -2.63667535E-02  1.02643166E-01 -2.33029855E-03 -6.46725909E-02
 -3.53239868E-02 -6.71781264E-07 -6.12581142E-07 -6.73760309E-02 -1.27679769E-06
 -1.16428104E-06 -2.21129959E-02 -5.61068273E-03 -2.03290352E-06 -1.85375572E-06
  5.71392914E-05  6.18509217E-04  4.30270058E-03  7.10584044E-02  1.55816825E-01
  2.39043838E-07  2.17978316E-07  1.59653290E-01  1.65464075E-06  1.50882702E-06
  7.15858129E-02 -1.19882371E-03  2.33812697E-02  1.14067573E-02 -1.29018020E-07
 -1.17648423E-07  2.17815012E-02 -6.16132638E-07 -5.61836502E-07  5.61068273E-03
  2.26543232E-03 -8.26268697E-07 -7.53454510E-07 -2.26476961E-05 -2.45151951E-04
  1.13785489E-03  6.56350064E-03 -1.23265133E-02  2.27217290E-07  2.07193970E-07
 -3.32305796E-02  5.30390313E-07  4.83650143E-07 -1.17335306E-02  3.02817090E-03
  6.49718457E-04  1.92527858E-06 -8.30948603E-06 -2.69025519E-02  1.09756890E-02
  2.54145040E-06 -1.64691688E-02  6.31545139E-03 -2.03290352E-06  8.26268697E-07
 -1.78964044E-03  2.30765086E-03 -6.56411323E-09 -7.10538129E-08 -7.15605310E-04
 -1.10025853E-06  9.01476623E-06 -1.86186964E-02  1.85295372E-02  2.07981124E-06
 -9.80476504E-03  1.23925606E-02 -2.13378465E-06 -8.03376170E-07  3.58544425E-03
  5.92462601E-04  1.75561513E-06 -7.57722003E-06  1.09756890E-02 -2.89304703E-02
  2.31748736E-06  6.31545139E-03 -1.76360404E-02 -1.85375572E-06  7.53454510E-07
  2.30765086E-03 -2.21601253E-03 -5.98565664E-09 -6.47922593E-08 -6.52543234E-04
 -1.00329923E-06  8.22034805E-06  1.85295372E-02 -2.20422982E-02  1.89652974E-06
  1.23925606E-02 -1.20944710E-02 -1.94574679E-06 -7.32579366E-07 -6.70100644E-04
  3.70925510E-03 -5.45476725E-06 -4.19908080E-04 -3.20271367E-04  3.10114306E-09
  2.82785757E-09 -2.37876207E-04  3.49382708E-09  3.18593669E-09 -5.71392914E-05
 -2.26476961E-05  6.56411323E-09  5.98565664E-09  1.91932148E-04 -1.71301094E-05
 -2.30732750E-05  3.38028500E-04  7.47943830E-04  6.97640205E-11  6.36161248E-11
  7.53429792E-04 -6.26249271E-09 -5.71061616E-09  3.33278190E-04 -5.69090529E-05
  7.30332520E-09  6.65972622E-09  1.93474939E-04 -5.90456007E-05 -4.54533145E-03
 -3.46680520E-03  3.35685917E-08  3.06103897E-08 -2.57491164E-03  3.78192341E-08
  3.44864481E-08 -6.18509217E-04 -2.45151951E-04  7.10538128E-08  6.47922593E-08
 -1.71301094E-05  8.08831091E-06 -2.49758666E-04  3.65901883E-03  8.09618289E-03
  7.55166878E-10  6.88618492E-10  8.15556615E-03 -6.77888952E-08 -6.18150596E-08
  3.60759869E-03 -6.16016981E-04  7.90554769E-08  7.20887839E-08 -4.30032379E-07
  1.88859743E-04
Mulliken Charges                           R   N=           2
  9.59232693E-14 -9.23705556E-14
ONIOM Charges                              I   N=          16
           0           0           0           0           0           0
           0           0           0           0           0           0
           0           0           0           0
ONIOM Multiplicities                       I   N=          16
           1           0           0           0           0           0
           0           0           0           0           0           0
           0           0           0           0
Atom Layers                                I   N=           2
           1           1
Atom Modifiers                             I   N=           2
           0           0