HF file generated by AutoMR of MOKIT
Stability RHF                                                         CC-pVDZ
Number of atoms                            I                2
Info1-9                                    I   N=           9
          12          11           0           0           0         110
           7           1           2
Charge                                     I                0
Multiplicity                               I                1
Number of electrons                        I               12
Number of alpha electrons                  I                6
Number of beta electrons                   I                6
Number of basis functions                  I               28
Number of independent functions            I               28
Number of point charges in /Mol/           I                0
Number of translation vectors              I                0
Atomic numbers                             I   N=           2
           6           6
Nuclear charges                            R   N=           2
  6.00000000E+00  6.00000000E+00
Current cartesian coordinates              R   N=           6
  0.00000000E+00  0.00000000E+00  0.00000000E+00  0.00000000E+00  0.00000000E+00
  2.34326040E+00
Force Field                                I                0
Int Atom Types                             I   N=           2
           0           0
MM charges                                 R   N=           2
  0.00000000E+00  0.00000000E+00
Integer atomic weights                     I   N=           2
          12          12
Real atomic weights                        R   N=           2
  1.20000000E+01  1.20000000E+01
Atom fragment info                         I   N=           2
           0           0
Atom residue num                           I   N=           2
           0           0
Nuclear spins                              I   N=           2
           0           0
Nuclear ZEff                               R   N=           2
 -3.60000000E+00 -3.60000000E+00
Nuclear QMom                               R   N=           2
  0.00000000E+00  0.00000000E+00
Nuclear GFac                               R   N=           2
  0.00000000E+00  0.00000000E+00
MicOpt                                     I   N=           2
          -1          -1
Number of contracted shells                I               12
Number of primitive shells                 I               44
Pure/Cartesian d shells                    I                0
Pure/Cartesian f shells                    I                0
Highest angular momentum                   I                2
Largest degree of contraction              I                8
Shell types                                I   N=          12
           0           0           0           1           1          -2
           0           0           0           1           1          -2
Number of primitives per shell             I   N=          12
           8           8           1           3           1           1
           8           8           1           3           1           1
Shell to atom map                          I   N=          12
           1           1           1           1           1           1
           2           2           2           2           2           2
Primitive exponents                        R   N=          44
  6.66500000E+03  1.00000000E+03  2.28000000E+02  6.47100000E+01  2.10600000E+01
  7.49500000E+00  2.79700000E+00  5.21500000E-01  6.66500000E+03  1.00000000E+03
  2.28000000E+02  6.47100000E+01  2.10600000E+01  7.49500000E+00  2.79700000E+00
  5.21500000E-01  1.59600000E-01  9.43900000E+00  2.00200000E+00  5.45600000E-01
  1.51700000E-01  5.50000000E-01  6.66500000E+03  1.00000000E+03  2.28000000E+02
  6.47100000E+01  2.10600000E+01  7.49500000E+00  2.79700000E+00  5.21500000E-01
  6.66500000E+03  1.00000000E+03  2.28000000E+02  6.47100000E+01  2.10600000E+01
  7.49500000E+00  2.79700000E+00  5.21500000E-01  1.59600000E-01  9.43900000E+00
  2.00200000E+00  5.45600000E-01  1.51700000E-01  5.50000000E-01
Contraction coefficients                   R   N=          44
  6.91583963E-04  5.32579615E-03  2.70607210E-02  1.01656846E-01  2.74574824E-01
  4.48294319E-01  2.84902611E-01  1.51948592E-02 -2.93269653E-04 -2.31803547E-03
 -1.14997860E-02 -4.68267270E-02 -1.28466169E-01 -3.01266272E-01 -2.55630702E-01
  1.09379336E+00  1.00000000E+00  5.69792516E-02  3.13207212E-01  7.60376742E-01
  1.00000000E+00  1.00000000E+00  6.91583963E-04  5.32579615E-03  2.70607210E-02
  1.01656846E-01  2.74574824E-01  4.48294319E-01  2.84902611E-01  1.51948592E-02
 -2.93269653E-04 -2.31803547E-03 -1.14997860E-02 -4.68267270E-02 -1.28466169E-01
 -3.01266272E-01 -2.55630702E-01  1.09379336E+00  1.00000000E+00  5.69792516E-02
  3.13207212E-01  7.60376742E-01  1.00000000E+00  1.00000000E+00
Coordinates of each shell                  R   N=          36
  0.00000000E+00  0.00000000E+00  0.00000000E+00  0.00000000E+00  0.00000000E+00
  0.00000000E+00  0.00000000E+00  0.00000000E+00  0.00000000E+00  0.00000000E+00
  0.00000000E+00  0.00000000E+00  0.00000000E+00  0.00000000E+00  0.00000000E+00
  0.00000000E+00  0.00000000E+00  0.00000000E+00  0.00000000E+00  0.00000000E+00
  2.34326040E+00  0.00000000E+00  0.00000000E+00  2.34326040E+00  0.00000000E+00
  0.00000000E+00  2.34326040E+00  0.00000000E+00  0.00000000E+00  2.34326040E+00
  0.00000000E+00  0.00000000E+00  2.34326040E+00  0.00000000E+00  0.00000000E+00
  2.34326040E+00
Constraint Structure                       R   N=           6
  0.00000000E+00  0.00000000E+00  0.00000000E+00  0.00000000E+00  0.00000000E+00
  2.34326040E+00
Num ILSW                                   I              100
ILSW                                       I   N=         100
           0           0           0           0           2           1
           0           0           0           0           0          -1
           0           0           0           0           0           0
           0           0           0           0           0           0
           1           1           0           0           0           0
           0           0      100000           0          -1           0
           0           0           0           0           0           0
           0           0           0           1           0           0
           0           0           1           0           0           0
           0           0           4          40           0           0
           0           0           0           0           0           0
           0           0           0           0           0           0
           0           0           0           0           0           0
           0           0           0           0           0           0
           0           0           0           0           0           0
           0           0           0           0           0           0
           0           0           0           0
Num RLSW                                   I               40
RLSW                                       R   N=          40
  1.00000000E+00  1.00000000E+00  1.00000000E+00  1.00000000E+00  1.00000000E+00
  0.00000000E+00  0.00000000E+00  1.00000000E+00  0.00000000E+00  0.00000000E+00
  0.00000000E+00  0.00000000E+00  1.00000000E+00  0.00000000E+00  0.00000000E+00
  0.00000000E+00  0.00000000E+00  1.00000000E+00  0.00000000E+00  0.00000000E+00
  0.00000000E+00  0.00000000E+00  1.00000000E+00  0.00000000E+00  0.00000000E+00
  0.00000000E+00  0.00000000E+00  1.00000000E+00  0.00000000E+00  0.00000000E+00
  0.00000000E+00  0.00000000E+00  1.00000000E+00  0.00000000E+00  0.00000000E+00
  0.00000000E+00  0.00000000E+00  0.00000000E+00  1.00000000E+00  1.00000000E+00
MxBond                                     I                1
NBond                                      I   N=           2
           1           1
IBond                                      I   N=           2
           2           1
RBond                                      R   N=           2
  3.00000000E+00  3.00000000E+00
Virial Ratio                               R      1.996773200146660E+00
SCF Energy                                 R     -7.548564491065345E+01
Total Energy                               R     -7.548564491065345E+01
S**2                                       R      1.230099081622202E+00
S**2 after annihilation                    R      1.534696883971831E+00
RMS Density                                R      2.891589065395345E-09
External E-field                           R   N=          35
  0.00000000E+00  0.00000000E+00  0.00000000E+00  0.00000000E+00  0.00000000E+00
  0.00000000E+00  0.00000000E+00  0.00000000E+00  0.00000000E+00  0.00000000E+00
  0.00000000E+00  0.00000000E+00  0.00000000E+00  0.00000000E+00  0.00000000E+00
  0.00000000E+00  0.00000000E+00  0.00000000E+00  0.00000000E+00  0.00000000E+00
  0.00000000E+00  0.00000000E+00  0.00000000E+00  0.00000000E+00  0.00000000E+00
  0.00000000E+00  0.00000000E+00  0.00000000E+00  0.00000000E+00  0.00000000E+00
  0.00000000E+00  0.00000000E+00  0.00000000E+00  0.00000000E+00  0.00000000E+00
IOpCl                                      I                0
IROHF                                      I                0
Alpha Orbital Energies                     R   N=          28
  2.00000000E+00  2.00000000E+00  1.99509301E+00  1.94305107E+00  1.92917702E+00
  1.92917580E+00  7.08241978E-02  7.08229800E-02  5.69489259E-02  4.90698649E-03
  0.00000000E+00  0.00000000E+00  0.00000000E+00  0.00000000E+00  0.00000000E+00
  0.00000000E+00  0.00000000E+00  0.00000000E+00  0.00000000E+00  0.00000000E+00
  0.00000000E+00  0.00000000E+00  0.00000000E+00  0.00000000E+00  0.00000000E+00
  0.00000000E+00  0.00000000E+00  0.00000000E+00
Alpha MO coefficients                      R   N=         784
  7.07460182E-01 -2.90365190E-03 -5.42834587E-03  8.83536953E-09  2.10053320E-08
  1.28530415E-03 -4.18326956E-09  1.86477300E-09  2.27834336E-05  6.11951782E-04
  6.60560458E-10  9.96133939E-10 -2.82969701E-05 -3.06984217E-04  7.07461059E-01
 -2.90371591E-03 -5.42834635E-03 -3.38023805E-08 -1.30547913E-08 -1.28542235E-03
 -5.94443803E-09  1.48737866E-09 -2.28441947E-05  6.11977490E-04  3.79826519E-09
  1.73625857E-09 -2.82975209E-05 -3.06991567E-04  7.09096999E-01  4.75605873E-04
 -1.00080103E-02  3.09210378E-09  1.07511371E-08  4.89152914E-03 -2.12374982E-08
 -1.30567651E-08 -9.12334717E-04  1.71961948E-03  1.95869333E-10  3.60776012E-10
 -2.44987940E-05 -2.65778225E-04 -7.09096126E-01 -4.75267511E-04  1.00081489E-02
  5.77218357E-09  4.67900413E-09  4.89130876E-03 -1.97109332E-08 -1.91318329E-08
 -9.12380921E-04 -1.71957013E-03  2.60814795E-10 -5.11722169E-10  2.44984811E-05
  2.65778034E-04 -3.92509923E-03  2.63808335E-01  1.62368158E-02 -2.03403733E-06
  3.98777783E-06  3.97011635E-01 -9.09892837E-07  2.57791213E-06  1.16020464E-01
  4.37915073E-02 -2.98111918E-07  5.41197960E-07 -4.02697252E-04 -4.36876231E-03
 -3.92444648E-03  2.63806997E-01  1.62271593E-02 -4.89073046E-06  1.64600247E-06
 -3.97009669E-01 -2.58551250E-06  1.19362934E-06 -1.16015419E-01  4.37927498E-02
  5.82123955E-07 -2.55664591E-07 -4.02725715E-04 -4.36883496E-03 -6.89782531E-08
 -3.06671440E-06 -6.01176019E-07 -2.87999366E-01  3.15765427E-01 -4.38591718E-06
 -1.63495863E-01  1.79259163E-01 -1.59360236E-06 -3.39321600E-07 -3.37307843E-02
  3.69834444E-02 -1.39052675E-07  8.43339377E-08 -6.67475211E-08 -1.95854802E-06
  1.91290665E-06 -2.88000603E-01  3.15767304E-01  5.04677006E-06 -1.63498616E-01
  1.79262343E-01  1.49414811E-06 -4.06980389E-07  3.37302757E-02 -3.69829311E-02
  5.34158216E-08  2.08551003E-09 -7.49265917E-03 -6.26126087E-02 -5.03852145E-02
  3.65646362E-07 -7.64987953E-07 -6.51862556E-02 -1.04756330E-06 -1.42036096E-06
 -5.56783061E-02  2.97907070E-03 -3.99702360E-07 -5.58985829E-07 -4.16200343E-04
 -4.51519949E-03 -5.89755045E-03  3.72703938E-01  6.09008030E-01  1.41311152E-06
 -4.47494420E-07  3.72841026E-01  1.07335379E-06 -2.89132872E-07  2.01244159E-01
 -2.96748829E-02 -7.51527184E-07 -4.59690960E-07  1.14132039E-03  1.23819709E-02
 -5.89791537E-03  3.72702988E-01  6.09000679E-01 -1.00981928E-08 -4.76753969E-08
 -3.72842479E-01  1.09404551E-07  1.32417420E-07 -2.01248194E-01 -2.96739436E-02
 -3.02061832E-07 -3.36685397E-07  1.14130774E-03  1.23822294E-02 -7.49310640E-03
 -6.26133424E-02 -5.03770957E-02  6.80703011E-07  6.97171870E-07  6.51855698E-02
  1.44425979E-06  1.21928352E-06  5.56738420E-02  2.97846819E-03 -6.83329397E-07
 -5.84697053E-07 -4.16178109E-04 -4.51509827E-03 -4.34022126E-06 -1.18831537E-05
  1.90692269E-05  5.31404334E-01  4.84674064E-01  5.19978561E-06  3.10414735E-01
  2.83118463E-01 -1.89428458E-06  1.30684391E-06 -1.68160451E-01 -1.53373686E-01
  7.91298803E-07 -3.91713633E-07  8.05905706E-07  2.05034188E-06 -9.56054952E-06
  3.04758150E-03  2.78165869E-03  5.91920864E-07 -1.01917962E-01 -9.29558627E-02
  5.83387847E-06 -1.68670505E-06 -3.97869435E-02 -3.62884114E-02 -1.83278550E-08
  2.75664323E-07  6.40317356E-07  8.30073154E-07 -3.71334311E-06  3.04482780E-03
  2.77753961E-03 -9.37173661E-07 -1.01921904E-01 -9.29585781E-02  1.69333900E-06
 -1.03476448E-07  3.97867466E-02  3.62880821E-02 -2.62343550E-08 -2.34449843E-07
  2.08502876E-06  6.11520571E-06 -3.34794793E-06  5.31405931E-01  4.84675896E-01
 -1.32130082E-06  3.10413897E-01  2.83116992E-01 -3.17523841E-06 -1.44339736E-06
  1.68163500E-01  1.53375252E-01  2.12524763E-06  1.04281130E-06  2.10638371E-06
  6.72260485E-06  9.42254295E-06  4.51769248E-01 -4.95327929E-01  8.93117554E-06
  2.10945406E-01 -2.31282965E-01  5.90510107E-06 -8.79110306E-07  2.28239223E-02
 -2.50230486E-02 -9.54001980E-08 -1.23555266E-06 -1.54498188E-06 -5.40212880E-06
 -1.03987892E-05 -4.51771359E-01  4.95329505E-01  9.84834898E-06 -2.10942535E-01
  2.31279996E-01  5.06630728E-06  1.41235598E-07  2.28197418E-02 -2.50197624E-02
 -1.28983037E-07  1.80414591E-07  3.51474341E-01  9.46660192E-01  2.93894667E-01
 -2.09711723E-06  1.19487772E-05  1.12524941E+00 -4.30498706E-06 -3.98601812E-06
  2.08810392E-01  2.35508351E-01  5.87285085E-06  1.13320191E-05 -2.75897796E-04
 -3.00289653E-03 -3.51470933E-01 -9.46654491E-01 -2.93897005E-01  1.37984643E-05
 -1.32600056E-06  1.12525041E+00 -5.91606283E-06 -4.73237514E-06  2.08812922E-01
 -2.35516574E-01 -1.33432439E-05 -4.97803208E-06  2.77353296E-04  3.00282839E-03
 -8.52767884E-02 -1.87416013E-02  4.73482900E+00 -1.07800726E-05 -1.25308727E-05
 -2.80752938E-01  1.17184016E-05  2.03056287E-05  2.95399790E+00  1.40714637E-01
 -3.55210439E-06 -3.27144350E-06  3.39813357E-04  3.68930798E-03  8.52780885E-02
  1.87443534E-02 -4.73482856E+00 -1.53678831E-05 -1.01595169E-05 -2.80755368E-01
  1.86967598E-05  6.27028418E-06  2.95400718E+00 -1.40713192E-01  4.14057041E-06
  3.25265844E-06 -3.40248449E-04 -3.68928968E-03 -1.95278329E-01 -3.96358292E-01
  7.24047344E-02 -4.86864013E-09 -5.39843088E-07 -4.14866196E-01  3.46860720E-06
  5.65017867E-06  9.89206768E-01 -4.95950501E-02  3.47438923E-07  3.38696805E-07
  1.48683341E-04  1.61308281E-03 -1.95277207E-01 -3.96356575E-01  7.23627372E-02
  6.18288276E-07  4.97646117E-07  4.14860218E-01 -3.70573515E-06 -5.15174201E-06
 -9.89179644E-01 -4.95971564E-02  1.04103461E-07  2.20686731E-07  1.48681897E-04
  1.61306794E-03  1.14245188E-07  2.73436944E-07 -3.15294586E-06 -4.19384444E-01
  4.59811126E-01  3.57832423E-07  4.18715069E-01 -4.59077457E-01 -1.46603535E-06
 -2.04024630E-07 -7.53865323E-02  8.26538727E-02 -1.84364084E-08  5.74607080E-09
 -2.95417541E-08  1.45466541E-08  2.63232327E-06 -4.19384680E-01  4.59811457E-01
  8.42664840E-07  4.18719957E-01 -4.59082490E-01 -2.43669990E-06  2.10659148E-07
  7.53863262E-02 -8.26536888E-02 -3.15962325E-09 -9.79181376E-09  4.72272401E-06
  8.05198535E-06 -1.41430326E-04 -4.63910901E-01 -4.23123164E-01  2.15198667E-05
  4.66331232E-01  4.25329827E-01 -8.87352155E-05 -8.23975762E-06 -5.91292794E-02
 -5.39310191E-02 -1.44830440E-07  4.52907128E-08 -3.22996731E-06 -4.49675904E-06
  1.37917659E-04 -4.63910420E-01 -4.23123728E-01  2.31170174E-05  4.66334011E-01
  4.25334634E-01 -8.98635984E-05  8.52231957E-06  5.91289774E-02  5.39306695E-02
 -2.57511205E-07 -1.52106249E-07  1.31452955E-06  3.24433480E-06 -1.74934367E-05
  3.74327107E-01 -4.10420467E-01  4.34426734E-06 -9.38546688E-01  1.02904027E+00
 -1.17003700E-05 -2.09629452E-06 -6.10487809E-02  6.69351476E-02 -4.74029743E-08
 -3.58607707E-07  2.00224204E-06  4.69013482E-06  1.07437576E-05 -3.74327440E-01
  4.10418999E-01  5.67402738E-06  9.38545110E-01 -1.02903768E+00 -1.14808331E-05
  2.48110978E-06 -6.10501664E-02  6.69367485E-02 -8.32676728E-08 -1.00712885E-07
  4.12591572E-01  1.01947701E+00 -9.32218287E-01 -9.91682915E-05 -8.75626390E-05
 -3.28738140E-01  2.24498235E-04  1.98679682E-04  2.61755134E-01  5.66041628E-02
  2.25458968E-05  2.00171069E-05 -2.27888234E-05 -2.47351484E-04  4.12590871E-01
  1.01947542E+00 -9.32211541E-01  1.02099666E-04  8.98440623E-05  3.28737448E-01
 -2.25749340E-04 -1.99285138E-04 -2.61757866E-01  5.66039333E-02  2.12847826E-05
  1.90111392E-05 -2.27838005E-05 -2.47341379E-04 -8.86278409E-05 -2.19969589E-04
  1.89116574E-04 -4.63657695E-01 -4.22883605E-01  7.23288746E-05  1.00269547E+00
  9.14518902E-01 -6.78460819E-05 -1.22449906E-05  9.84498259E-02  8.97923730E-02
 -2.51854737E-08  1.41625369E-07 -9.06965253E-05 -2.23576186E-04  2.19271344E-04
  4.63656465E-01  4.22882376E-01 -7.49040867E-05 -1.00269455E+00 -9.14518140E-01
  5.43667039E-05 -1.25317756E-05  9.84514058E-02  8.97935790E-02  4.06213765E-07
  3.03670569E-07 -6.46781580E-01 -1.37395514E+00  6.33991012E+00  2.21274635E-06
  5.10525116E-06  2.97008968E-01 -2.99136563E-06 -7.83935309E-06  2.51678465E+00
 -1.99010456E-02 -1.62057280E-05 -1.62597475E-05  1.31636203E-03  1.42996131E-02
  6.46781148E-01  1.37395461E+00 -6.33991010E+00  1.00815045E-05  5.38335297E-06
  2.97011356E-01 -1.01901748E-05 -3.72633011E-06  2.51678252E+00  1.99024120E-02
  1.81945609E-05  1.43617615E-05 -1.31961866E-03 -1.42995953E-02  3.18312473E-03
  5.12595138E-03 -5.63757981E-03  1.24819981E-06  1.81016446E-07  7.91267799E-03
 -7.83362509E-07 -3.12283116E-07 -2.92820569E-03 -3.61602409E-03 -2.32528732E-06
 -1.95404064E-06  5.87317858E-02  6.37196226E-01  3.18343392E-03  5.12674161E-03
 -5.64074663E-03 -5.40066849E-07  5.23993757E-07 -7.91247681E-03 -2.35426128E-07
 -6.13167396E-07  2.92963517E-03 -3.61611874E-03  2.11534246E-06  2.12513869E-06
  5.87317134E-02  6.37195271E-01  1.95142679E-06  4.33958144E-06 -2.03096169E-05
 -1.66469801E-06 -1.43999688E-06 -5.53781603E-08  1.58381458E-06  1.33935991E-06
 -8.50405676E-06 -5.77285723E-07  6.73759047E-06  6.11839329E-06 -6.37244410E-01
  5.87362123E-02 -1.95743406E-06 -4.35376376E-06  2.02967025E-05 -6.40741817E-07
 -7.78750280E-07  1.58220547E-08  1.51432424E-06  1.46739543E-06 -8.52839970E-06
  6.09050490E-07 -6.80164134E-06 -6.22244370E-06 -6.37243466E-01  5.87361708E-02
  3.20204620E-05  7.23399763E-05 -3.15663968E-04  1.21055233E-01  1.10409807E-01
 -4.60547725E-07 -9.26091548E-02 -8.44657698E-02 -1.29942355E-04 -9.70108550E-06
 -4.37326749E-01 -3.98870073E-01 -1.08873223E-05 -3.56154882E-06 -3.06741664E-05
 -6.89498974E-05  3.13275043E-04  1.21050142E-01  1.10406378E-01  1.20746670E-06
 -9.26090025E-02 -8.44647452E-02 -1.30630094E-04  9.22916331E-06  4.37326934E-01
  3.98870000E-01 -9.80053780E-06 -1.19652531E-06  5.03905627E-07  1.19293180E-06
 -5.87847033E-06  2.26281174E-01 -2.48097293E-01  1.00901446E-07 -6.37713413E-02
  6.99199653E-02 -2.60868609E-06 -4.79678002E-07 -4.02542188E-01  4.41353147E-01
 -5.39371499E-07  7.16105034E-08 -4.77532741E-07 -1.15171190E-06  5.87223209E-06
  2.26275912E-01 -2.48092787E-01  2.72019406E-07 -6.37699081E-02  6.99180770E-02
 -2.57371291E-06  4.87812689E-07  4.02540594E-01 -4.41351116E-01  5.47604919E-07
 -4.31846524E-08 -8.98255137E-03 -1.50642895E-02  2.59669298E-01 -8.24096035E-07
  7.15062064E-08  2.23616670E-02  9.40513316E-08  1.74068756E-07  1.11395734E-01
  3.36727105E-02  3.10943035E-07  2.30365970E-07 -7.34715895E-02 -7.97181340E-01
  8.98282264E-03  1.50648265E-02 -2.59669469E-01 -4.60100672E-07 -1.17255956E-06
  2.23614375E-02  7.69880624E-08  9.69781357E-09  1.11396146E-01 -3.36732207E-02
 -1.34343350E-07 -2.46896444E-07  7.34716045E-02  7.97182102E-01  1.95557675E-09
  8.88090798E-08  1.06969377E-06  4.77555127E-07  5.69102092E-07  2.48429645E-07
  4.18985790E-07  3.28243298E-07  4.29489901E-07  1.10065498E-07  8.95506087E-07
  3.46349248E-07 -7.97728218E-01  7.35219624E-02  1.66681465E-09 -8.63651387E-08
 -1.08619990E-06 -1.27732559E-06 -8.39848782E-07  2.18678834E-07 -2.95897122E-07
 -4.54904886E-07  4.27201306E-07 -1.19322514E-07 -2.21716189E-07  4.50365410E-07
  7.97728967E-01 -7.35220442E-02 -4.62612136E-01 -8.31871486E-01  3.80496392E-01
 -5.62372077E-07 -7.03935644E-07 -3.39207847E-01 -9.24855546E-07 -4.75757077E-07
  6.30842831E-01  9.17501185E-01 -2.17092663E-06 -9.39632596E-07  2.70621969E-04
  2.93596523E-03 -4.62607081E-01 -8.31864319E-01  3.80746794E-01  1.31685337E-06
  1.24137180E-06  3.39165517E-01  1.06710531E-06  5.24808997E-07 -6.30958685E-01
  9.17568834E-01 -1.77703198E-06 -5.46438744E-07  2.70794597E-04  2.93773104E-03
 -2.93426727E-06 -5.61931259E-06 -3.78839601E-05  3.41368830E-01  3.11350464E-01
 -8.61894446E-06  4.06802427E-01  3.71029836E-01 -1.89026088E-05 -1.05862037E-05
  8.73202884E-01  7.96416614E-01  4.02838021E-07 -2.25601537E-07  4.85931612E-07
  7.77681853E-07  4.19961296E-05 -3.41369461E-01 -3.11350773E-01 -7.30062326E-06
 -4.06802017E-01 -3.71029506E-01 -1.93276499E-05  1.37317136E-05  8.73202087E-01
  7.96416166E-01 -6.62066514E-07  1.24770185E-07  1.52397391E-04  2.87048838E-04
  4.00557592E-03 -2.18319639E-01  2.39369097E-01  8.69899389E-04 -3.45481318E-01
  3.78790910E-01  1.86108740E-03  1.16976314E-03 -8.09986854E-01  8.88081253E-01
  1.99299234E-06  2.12202103E-05 -1.51796827E-04 -2.85948915E-04 -4.00611974E-03
  2.18319606E-01 -2.39368508E-01  8.69561583E-04  3.45481755E-01 -3.78791252E-01
  1.86177194E-03 -1.17091848E-03 -8.09987635E-01  8.88082331E-01 -2.02165894E-06
 -2.13595996E-05  1.62087155E-01  3.06602588E-01  4.20259281E+00  2.10678375E-04
 -2.28800208E-04  9.18912503E-01  3.32293377E-04 -3.54471259E-04  1.95313195E+00
  1.23120014E+00  7.73734456E-04 -8.41372077E-04  2.06514496E-03  2.24115552E-02
 -1.62113126E-01 -3.06649190E-01 -4.20257177E+00 -2.15051956E-04  2.24606888E-04
  9.18929838E-01 -3.29354231E-04  3.56998433E-04  1.95309715E+00 -1.23114814E+00
  7.84742908E-04 -8.32206854E-04 -2.06603062E-03 -2.24114030E-02
Total SCF Density                          R   N=         406
  2.00744926E+00 -7.20272912E-03  4.18803009E-01 -2.76952312E-02  4.53896410E-01
  7.21602854E-01 -4.63913933E-08  3.10248179E-07  1.17925347E-06  1.92787477E-01
 -2.04650553E-07 -2.66583448E-07  1.83521324E-07 -1.71203290E-01  2.24347546E-01
  1.27719521E-02 -4.60231403E-02 -4.17333296E-01  1.21827038E-06  5.90649120E-07
  5.97102563E-01 -7.52639354E-08  4.94062809E-07  9.45363574E-07  1.08579907E-01
 -9.56275991E-02  9.30046968E-07  6.20337531E-02 -1.66930196E-07  2.04595415E-07
  4.44950260E-07 -9.56278895E-02  1.26208507E-01  5.68282995E-07 -5.28302878E-02
  7.17729993E-02  1.28458766E-03 -7.59408351E-02 -2.26950788E-01  4.64441635E-07
 -1.73055531E-07  2.44796430E-01  3.78386566E-07  1.18318099E-08  1.11184886E-01
  3.66243708E-03  2.44482352E-03 -3.34354272E-02  3.89958121E-08  2.22055853E-07
  5.69741392E-02  2.98805390E-08  1.25110558E-07  2.15754034E-02  5.82065055E-03
  8.36445044E-08  5.50670747E-08 -5.03155877E-07  1.31425155E-02 -2.71038519E-02
  2.98330738E-07  7.00562572E-03 -1.56832134E-02  2.36672786E-07  9.78460699E-10
  4.35527751E-03  6.99710021E-08  6.41780300E-08 -5.80683573E-07 -2.71042200E-02
  1.81393246E-02  4.16918579E-07 -1.56833790E-02  9.89697925E-03  2.29637126E-07
  3.88502559E-08 -5.27535874E-04  4.45260933E-03 -7.90742347E-05  6.57795302E-04
  1.36869775E-03  1.06455532E-07 -5.81794654E-08 -1.08938100E-03  6.24344177E-08
 -3.17705118E-08 -4.91851715E-04 -1.03348194E-04 -6.21190391E-10 -1.92621463E-08
  3.17379942E-06 -8.57871569E-04  7.13654051E-03  1.48491891E-02 -7.94478284E-08
  4.36757420E-08 -1.18188191E-02 -2.88072053E-08  3.24677766E-08 -5.33617354E-03
 -1.12123644E-03 -4.35118665E-09  3.41510712E-09  3.44327539E-05  3.73563170E-04
 -5.03974897E-03 -1.31563804E-02 -2.35156914E-03  5.20283385E-08  2.73885076E-09
 -4.03637303E-03  5.43972034E-08  2.16251785E-08  3.60019986E-03 -1.92687289E-03
  4.19860558E-10 -1.76472076E-08 -1.34281161E-05 -1.45669580E-04  2.00744924E+00
 -1.31559695E-02  4.44276326E-02 -1.02568481E-01  2.38757421E-07  5.21237478E-07
  2.01882569E-01 -6.67046740E-07 -2.72103968E-07  4.43704345E-02  2.76755138E-02
 -3.20935760E-07 -2.68651480E-07 -6.47592186E-04 -7.02553832E-03 -7.20266416E-03
  4.18803256E-01 -2.35094439E-03 -1.02567653E-01 -1.18422871E-01 -1.33082840E-06
  3.55872995E-07 -2.90368281E-02 -2.18366323E-06 -9.59116410E-07 -4.24205231E-02
  7.48983855E-03 -4.92830653E-07 -3.75318112E-07 -6.12729172E-04 -6.64731349E-03
 -2.76950583E-02  4.53897060E-01  7.21618386E-01  1.85359434E-09 -6.19209560E-07
  4.82457800E-07  1.49770633E-01 -1.63749403E-01 -2.27455973E-06  8.22961776E-02
 -9.78004395E-02 -7.30829208E-07 -2.33326173E-07  1.97496393E-02 -1.87195160E-02
  8.37281444E-08  2.20802722E-08  8.83102640E-08 -2.38590955E-07  4.85345237E-07
  1.92788748E-01  9.74419508E-09 -2.50227382E-07  6.87274342E-07 -1.63749652E-01
  1.79956886E-01 -1.61893614E-06 -9.78001998E-02  1.00325539E-01 -5.96401562E-07
 -1.36490706E-07 -1.87191635E-02  2.32008196E-02 -8.81775728E-08  1.49952588E-08
 -5.34993899E-08 -6.77153818E-07  2.25454611E-07 -1.71205388E-01  2.24349780E-01
  4.03672788E-03 -2.01882521E-01  2.90217387E-02 -6.87529504E-07 -8.10119668E-07
 -4.01977299E-01 -1.50539850E-06 -1.42032043E-06 -1.56108427E-01 -3.49592177E-02
 -3.85669027E-07 -4.71695846E-07  1.61436029E-04  1.75142328E-03 -1.27720853E-02
  4.60250697E-02  4.17345941E-01  1.92500914E-06  1.78383106E-06  5.97097358E-01
 -1.62536793E-08  5.18025776E-07  1.35916717E-06  8.22974564E-02 -9.78013959E-02
 -2.02668131E-06  4.49249469E-02 -5.82570285E-02 -7.94287017E-07 -2.02662530E-07
  1.25301354E-02 -9.54366393E-03  4.34372874E-08  3.35111801E-08  9.66857948E-08
  7.07664895E-08  5.57824887E-07  1.08581575E-01 -9.56300234E-02  1.21380904E-06
  6.20352349E-02 -7.10068168E-09  6.33060871E-07  1.20751847E-06 -9.78018964E-02
  1.00326907E-01 -1.38458910E-06 -5.82570919E-02  5.56647051E-02 -6.01719928E-07
 -1.13157285E-07 -9.54349081E-03  1.42896976E-02 -5.34613249E-08  3.22984319E-08
  6.62062105E-09 -3.49173928E-07  1.12017348E-07 -9.56302758E-02  1.26210842E-01
  8.30796878E-07 -5.28323736E-02  7.17749545E-02 -3.59999136E-03 -4.43706519E-02
  4.24096060E-02  1.22623031E-07 -2.39458100E-07 -1.56101569E-01 -4.51340525E-07
 -5.46380812E-07 -6.98699454E-02 -1.19284419E-02 -2.82372873E-07 -3.38216201E-07
  5.39701727E-05  5.85570152E-04 -1.28459807E-03  7.59418178E-02  2.26952752E-01
  6.83162620E-07  4.70599201E-07  2.44787980E-01  5.16807727E-07  2.22701388E-07
  1.11178510E-01 -1.92686246E-03  2.76758724E-02  7.49051714E-03 -2.86955921E-08
  6.62455073E-08  3.49609151E-02  9.04684273E-08  1.44027403E-07  1.19297343E-02
  3.20770186E-03  3.11918283E-08  4.94201154E-08 -4.43081373E-06 -4.80579800E-05
  3.66245526E-03  2.44471629E-03 -3.34376569E-02 -3.50875451E-07 -1.20661474E-07
 -5.69756830E-02 -1.64110826E-07 -2.43517370E-08 -2.15754931E-02  5.82098807E-03
  1.48836576E-08 -3.05046205E-07 -8.55320574E-07 -1.97494454E-02  1.87187743E-02
  6.71776759E-07 -1.25299097E-02  9.54310126E-03  3.95830115E-07  4.19472055E-08
 -1.23333320E-03  3.25573664E-03 -1.31306488E-08 -1.24233776E-08  5.80664767E-08
 -1.57802379E-07 -6.79569919E-07 -1.31421901E-02  2.71035624E-02 -8.35096551E-07
 -7.00560190E-03  1.56831695E-02 -4.63320198E-07  6.64543440E-08  4.35524121E-03
  2.85106733E-08 -2.72220968E-07 -7.17300671E-07  1.87191655E-02 -2.32005377E-02
  5.27277442E-07  9.54328022E-03 -1.42893747E-02  3.41467156E-07  2.38938611E-08
  3.25573622E-03 -1.83360168E-03  7.10332464E-09 -1.35015088E-08  5.50269527E-08
 -1.61748512E-07 -6.18826012E-07  2.71039099E-02 -1.81390817E-02 -6.21730447E-07
  1.56833343E-02 -9.89701963E-03 -3.51263325E-07  2.40764445E-08 -5.27431902E-04
  4.45253486E-03 -1.34251562E-05 -6.47584519E-04 -6.12722579E-04 -3.09970141E-08
  3.13659641E-08 -1.61470314E-04 -3.59324797E-08  6.33696578E-10 -5.39960800E-05
 -4.43126791E-06  2.14822136E-09  8.30342569E-09 -1.50914481E-06 -1.63726036E-05
 -7.90766986E-05  6.57784245E-04  1.36872568E-03  5.99237450E-08  9.92146122E-08
  1.08941980E-03  3.47071340E-08  5.70590602E-08  4.91858054E-04 -1.03355592E-04
  2.71040668E-08  1.91337379E-08  3.17387077E-06 -1.45656756E-04 -7.02545736E-03
 -6.64738325E-03  4.05910953E-08 -4.65893971E-08 -1.75154524E-03 -1.80796174E-08
 -6.06059212E-08 -5.85715956E-04 -4.80548531E-05 -4.47881192E-09 -1.53920800E-08
 -1.63727624E-05 -1.77626924E-04 -8.57872765E-04  7.13635087E-03  1.48490713E-02
  1.04179437E-07  1.11008999E-08  1.18186632E-02  5.36069910E-08 -5.81430722E-09
  5.33600272E-03 -1.12125590E-03 -5.25831618E-09  6.47817298E-09  3.44325555E-05
  3.73550493E-04
Mulliken Charges                           R   N=           2
  9.59232693E-14 -9.23705556E-14
ONIOM Charges                              I   N=          16
           0           0           0           0           0           0
           0           0           0           0           0           0
           0           0           0           0
ONIOM Multiplicities                       I   N=          16
           1           0           0           0           0           0
           0           0           0           0           0           0
           0           0           0           0
Atom Layers                                I   N=           2
           1           1
Atom Modifiers                             I   N=           2
           0           0