HF file generated by AutoMR of MOKIT                                    
Stability UHF                                                         CC-pVDZ             
Number of atoms                            I                2
Info1-9                                    I   N=           9
          12          11           0           0           0         110
           7           1           2
Charge                                     I                0
Multiplicity                               I                1
Number of electrons                        I               12
Number of alpha electrons                  I                6
Number of beta electrons                   I                6
Number of basis functions                  I               28
Number of independent functions            I               28
Number of point charges in /Mol/           I                0
Number of translation vectors              I                0
Atomic numbers                             I   N=           2
           6           6
Nuclear charges                            R   N=           2
  6.00000000E+00  6.00000000E+00
Current cartesian coordinates              R   N=           6
  0.00000000E+00  0.00000000E+00  0.00000000E+00  0.00000000E+00  0.00000000E+00
  2.34326040E+00
Force Field                                I                0
Int Atom Types                             I   N=           2
           0           0
MM charges                                 R   N=           2
  0.00000000E+00  0.00000000E+00
Integer atomic weights                     I   N=           2
          12          12
Real atomic weights                        R   N=           2
  1.20000000E+01  1.20000000E+01
Atom fragment info                         I   N=           2
           0           0
Atom residue num                           I   N=           2
           0           0
Nuclear spins                              I   N=           2
           0           0
Nuclear ZEff                               R   N=           2
 -3.60000000E+00 -3.60000000E+00
Nuclear QMom                               R   N=           2
  0.00000000E+00  0.00000000E+00
Nuclear GFac                               R   N=           2
  0.00000000E+00  0.00000000E+00
MicOpt                                     I   N=           2
          -1          -1
Number of contracted shells                I               12
Number of primitive shells                 I               44
Pure/Cartesian d shells                    I                0
Pure/Cartesian f shells                    I                0
Highest angular momentum                   I                2
Largest degree of contraction              I                8
Shell types                                I   N=          12
           0           0           0           1           1          -2
           0           0           0           1           1          -2
Number of primitives per shell             I   N=          12
           8           8           1           3           1           1
           8           8           1           3           1           1
Shell to atom map                          I   N=          12
           1           1           1           1           1           1
           2           2           2           2           2           2
Primitive exponents                        R   N=          44
  6.66500000E+03  1.00000000E+03  2.28000000E+02  6.47100000E+01  2.10600000E+01
  7.49500000E+00  2.79700000E+00  5.21500000E-01  6.66500000E+03  1.00000000E+03
  2.28000000E+02  6.47100000E+01  2.10600000E+01  7.49500000E+00  2.79700000E+00
  5.21500000E-01  1.59600000E-01  9.43900000E+00  2.00200000E+00  5.45600000E-01
  1.51700000E-01  5.50000000E-01  6.66500000E+03  1.00000000E+03  2.28000000E+02
  6.47100000E+01  2.10600000E+01  7.49500000E+00  2.79700000E+00  5.21500000E-01
  6.66500000E+03  1.00000000E+03  2.28000000E+02  6.47100000E+01  2.10600000E+01
  7.49500000E+00  2.79700000E+00  5.21500000E-01  1.59600000E-01  9.43900000E+00
  2.00200000E+00  5.45600000E-01  1.51700000E-01  5.50000000E-01
Contraction coefficients                   R   N=          44
  6.91583963E-04  5.32579615E-03  2.70607210E-02  1.01656846E-01  2.74574824E-01
  4.48294319E-01  2.84902611E-01  1.51948592E-02 -2.93269653E-04 -2.31803547E-03
 -1.14997860E-02 -4.68267270E-02 -1.28466169E-01 -3.01266272E-01 -2.55630702E-01
  1.09379336E+00  1.00000000E+00  5.69792516E-02  3.13207212E-01  7.60376742E-01
  1.00000000E+00  1.00000000E+00  6.91583963E-04  5.32579615E-03  2.70607210E-02
  1.01656846E-01  2.74574824E-01  4.48294319E-01  2.84902611E-01  1.51948592E-02
 -2.93269653E-04 -2.31803547E-03 -1.14997860E-02 -4.68267270E-02 -1.28466169E-01
 -3.01266272E-01 -2.55630702E-01  1.09379336E+00  1.00000000E+00  5.69792516E-02
  3.13207212E-01  7.60376742E-01  1.00000000E+00  1.00000000E+00
Coordinates of each shell                  R   N=          36
  0.00000000E+00  0.00000000E+00  0.00000000E+00  0.00000000E+00  0.00000000E+00
  0.00000000E+00  0.00000000E+00  0.00000000E+00  0.00000000E+00  0.00000000E+00
  0.00000000E+00  0.00000000E+00  0.00000000E+00  0.00000000E+00  0.00000000E+00
  0.00000000E+00  0.00000000E+00  0.00000000E+00  0.00000000E+00  0.00000000E+00
  2.34326040E+00  0.00000000E+00  0.00000000E+00  2.34326040E+00  0.00000000E+00
  0.00000000E+00  2.34326040E+00  0.00000000E+00  0.00000000E+00  2.34326040E+00
  0.00000000E+00  0.00000000E+00  2.34326040E+00  0.00000000E+00  0.00000000E+00
  2.34326040E+00
Constraint Structure                       R   N=           6
  0.00000000E+00  0.00000000E+00  0.00000000E+00  0.00000000E+00  0.00000000E+00
  2.34326040E+00
Num ILSW                                   I              100
ILSW                                       I   N=         100
           1           0           0           0           2           1
           0           0           0           0           0          -1
           0           0           0           0           0           0
           0           0           0           0           0           0
           1           1           0           0           0           0
           0           0      100000           0          -1           0
           0           0           0           0           0           0
           0           0           0           1           0           0
           0           0           1           0           0           0
           0           0           4          40           0           0
           0           0           0           0           0           0
           0           0           0           0           0           0
           0           0           0           0           0           0
           0           0           0           0           0           0
           0           0           0           0           0           0
           0           0           0           0           0           0
           0           0           0           0
Num RLSW                                   I               40
RLSW                                       R   N=          40
  1.00000000E+00  1.00000000E+00  1.00000000E+00  1.00000000E+00  1.00000000E+00
  0.00000000E+00  0.00000000E+00  1.00000000E+00  0.00000000E+00  0.00000000E+00
  0.00000000E+00  0.00000000E+00  1.00000000E+00  0.00000000E+00  0.00000000E+00
  0.00000000E+00  0.00000000E+00  1.00000000E+00  0.00000000E+00  0.00000000E+00
  0.00000000E+00  0.00000000E+00  1.00000000E+00  0.00000000E+00  0.00000000E+00
  0.00000000E+00  0.00000000E+00  1.00000000E+00  0.00000000E+00  0.00000000E+00
  0.00000000E+00  0.00000000E+00  1.00000000E+00  0.00000000E+00  0.00000000E+00
  0.00000000E+00  0.00000000E+00  0.00000000E+00  1.00000000E+00  1.00000000E+00
MxBond                                     I                1
NBond                                      I   N=           2
           1           1
IBond                                      I   N=           2
           2           1
RBond                                      R   N=           2
  3.00000000E+00  3.00000000E+00
Virial Ratio                               R      1.996773200146660E+00
SCF Energy                                 R     -7.548564491065345E+01
Total Energy                               R     -7.548564491065345E+01
S**2                                       R      1.230099081622202E+00
S**2 after annihilation                    R      1.534696883971831E+00
RMS Density                                R      2.891589065395345E-09
External E-field                           R   N=          35
  0.00000000E+00  0.00000000E+00  0.00000000E+00  0.00000000E+00  0.00000000E+00
  0.00000000E+00  0.00000000E+00  0.00000000E+00  0.00000000E+00  0.00000000E+00
  0.00000000E+00  0.00000000E+00  0.00000000E+00  0.00000000E+00  0.00000000E+00
  0.00000000E+00  0.00000000E+00  0.00000000E+00  0.00000000E+00  0.00000000E+00
  0.00000000E+00  0.00000000E+00  0.00000000E+00  0.00000000E+00  0.00000000E+00
  0.00000000E+00  0.00000000E+00  0.00000000E+00  0.00000000E+00  0.00000000E+00
  0.00000000E+00  0.00000000E+00  0.00000000E+00  0.00000000E+00  0.00000000E+00
IOpCl                                      I                1
IROHF                                      I                0
Alpha Orbital Energies                     R   N=          28
 -1.13222844E+01 -1.13196195E+01 -1.07179043E+00 -5.60339694E-01 -5.33785586E-01
 -4.53058096E-01 -1.79417736E-02  1.78918563E-01  2.13971105E-01  4.19178385E-01
  5.73722012E-01  6.30023072E-01  6.39895454E-01  7.45998227E-01  7.79874972E-01
  7.84962031E-01  9.44460577E-01  1.20700690E+00  1.20743462E+00  1.25853402E+00
  1.37790251E+00  1.38465536E+00  1.62443600E+00  1.62447880E+00  2.05184056E+00
  2.11173910E+00  2.12738509E+00  2.43563277E+00
Beta Orbital Energies                      R   N=          28
 -1.13222844E+01 -1.13196195E+01 -1.07179043E+00 -5.60339694E-01 -5.33785586E-01
 -4.53058096E-01 -1.79417736E-02  1.78918563E-01  2.13971105E-01  4.19178385E-01
  5.73722012E-01  6.30023072E-01  6.39895454E-01  7.45998227E-01  7.79874972E-01
  7.84962031E-01  9.44460577E-01  1.20700690E+00  1.20743462E+00  1.25853402E+00
  1.37790251E+00  1.38465536E+00  1.62443600E+00  1.62447880E+00  2.05184056E+00
  2.11173910E+00  2.12738509E+00  2.43563277E+00
Alpha MO coefficients                      R   N=         784
  7.07303054E-01  7.48541736E-04 -1.90108486E-03 -9.71285605E-05 -8.85691933E-05
  8.89599445E-04 -4.01072840E-05 -3.65728656E-05 -3.33299659E-04  5.39178442E-04
  4.65419314E-04  4.24404655E-04 -1.33185461E-05 -1.44167759E-04  7.07303054E-01
  7.48541735E-04 -1.90108486E-03 -9.71285605E-05 -8.85691933E-05 -8.89599445E-04
 -4.01072840E-05 -3.65728656E-05  3.33299659E-04  5.39178442E-04 -4.65419314E-04
 -4.24404655E-04 -1.33185461E-05 -1.44167759E-04  7.08804567E-01  2.43044832E-03
 -7.78245449E-03 -1.70198018E-04 -1.55199471E-04  1.81440806E-03  1.17166253E-04
  1.06841082E-04 -2.47640289E-03  8.07188426E-04  5.41241035E-04  4.93544655E-04
 -5.44951094E-06 -5.89887045E-05 -7.08804567E-01 -2.43044832E-03  7.78245449E-03
  1.70198018E-04  1.55199471E-04  1.81440806E-03 -1.17166253E-04 -1.06841082E-04
 -2.47640289E-03 -8.07188426E-04  5.41241035E-04  4.93544655E-04  5.44951094E-06
  5.89887045E-05 -1.53561457E-02  3.34068141E-01  1.96549783E-01  9.24920600E-04
  8.43412803E-04  2.04693280E-01 -3.99767047E-03 -3.64537935E-03  2.66540306E-02
  2.73979495E-02  1.54209474E-02  1.40619902E-02 -1.89333574E-04 -2.04945771E-03
 -1.53561457E-02  3.34068141E-01  1.96549783E-01  9.24920600E-04  8.43412803E-04
 -2.04693280E-01 -3.99767047E-03 -3.64537935E-03 -2.66540306E-02  2.73979495E-02
 -1.54209474E-02 -1.40619902E-02 -1.89333574E-04 -2.04945771E-03 -8.72740160E-04
  3.05138055E-01  4.29954924E-01 -9.77677196E-02 -8.91520271E-02 -2.07526538E-01
 -7.86611219E-02 -7.17291811E-02 -1.11184855E-01 -1.37852490E-02  2.11815486E-02
  1.93149437E-02  6.21021828E-04  6.72230472E-03  8.72740160E-04 -3.05138055E-01
 -4.29954924E-01  9.77677196E-02  8.91520271E-02 -2.07526538E-01  7.86611219E-02
  7.17291811E-02 -1.11184855E-01  1.37852490E-02  2.11815486E-02  1.93149437E-02
 -6.21021828E-04 -6.72230472E-03  1.00819160E-03 -6.96723233E-02 -2.34637260E-01
  2.25982623E-01  2.06068107E-01  3.40395406E-01  1.18000375E-01  1.07601698E-01
  1.50712156E-01  2.39261870E-02  1.11816727E-02  1.01962978E-02 -6.14166203E-04
 -6.64809541E-03  1.00819160E-03 -6.96723233E-02 -2.34637260E-01  2.25982623E-01
  2.06068107E-01 -3.40395406E-01  1.18000375E-01  1.07601698E-01 -1.50712156E-01
  2.39261870E-02 -1.11816727E-02 -1.01962978E-02 -6.14166203E-04 -6.64809541E-03
 -9.53134697E-16 -2.61479683E-15  1.73826566E-14 -2.82255317E-01  3.09532600E-01
  2.55177001E-15 -1.69582149E-01  1.85970645E-01  1.20297506E-14  9.89995223E-16
 -3.13164354E-02  3.43428700E-02  9.79482233E-03 -9.04868006E-04  8.38341317E-16
  2.24914268E-15 -1.98385799E-14 -2.82255317E-01  3.09532600E-01 -1.37089943E-16
 -1.69582149E-01  1.85970645E-01  8.81445653E-15 -7.41816744E-16  3.13164354E-02
 -3.43428700E-02  9.79482233E-03 -9.04868006E-04 -2.26403967E-02  7.86517087E-03
  2.84805500E-01  1.73511985E-01  1.58221397E-01 -2.63114076E-01  1.80299121E-01
  1.64410423E-01 -2.31743066E-01 -4.70456020E-03  2.59019792E-02  2.36193905E-02
 -6.15691025E-04 -6.66460098E-03 -2.26403967E-02  7.86517087E-03  2.84805500E-01
  1.73511985E-01  1.58221397E-01  2.63114076E-01  1.80299121E-01  1.64410423E-01
  2.31743066E-01 -4.70456020E-03 -2.59019792E-02 -2.36193905E-02 -6.15691025E-04
 -6.66460098E-03  1.30889242E-15 -4.36415733E-16 -2.29872283E-14 -2.57183810E-01
  2.82038171E-01 -1.60203134E-16 -5.31736244E-01  5.83123477E-01 -5.14394181E-15
 -5.03275487E-16  9.95803710E-03 -1.09203863E-02  1.80356400E-02 -1.66617352E-03
 -7.62350370E-16  1.66334072E-15  2.04758811E-14  2.57183810E-01 -2.82038171E-01
 -4.21688587E-16  5.31736244E-01 -5.83123477E-01 -7.37626630E-15  5.94545642E-16
  9.95803710E-03 -1.09203863E-02 -1.80356400E-02  1.66617352E-03 -3.52654665E-03
  4.64747672E-02 -2.67973202E-01  2.50206601E-01  2.28157369E-01 -7.27882135E-03
  6.00245911E-01  5.47349779E-01 -2.94729052E-01 -1.12003904E-02 -2.87503273E-03
 -2.62167306E-03 -1.50145148E-03 -1.62525920E-02  3.52654665E-03 -4.64747672E-02
  2.67973202E-01 -2.50206601E-01 -2.28157369E-01 -7.27882135E-03 -6.00245911E-01
 -5.47349779E-01 -2.94729052E-01  1.12003904E-02 -2.87503273E-03 -2.62167306E-03
  1.50145148E-03  1.62525920E-02 -4.17006309E-02  1.35666299E-01  4.62232479E+00
 -7.62597924E-03 -6.95394667E-03 -1.97395849E-03  1.18132001E-01  1.07721724E-01
  2.83461612E+00  7.91536595E-02  5.77928383E-03  5.26998964E-03  1.27613220E-04
  1.38136038E-03  4.17006309E-02 -1.35666299E-01 -4.62232479E+00  7.62597924E-03
  6.95394667E-03 -1.97395849E-03 -1.18132001E-01 -1.07721724E-01  2.83461612E+00
 -7.91536595E-02  5.77928383E-03  5.26998964E-03 -1.27613220E-04 -1.38136038E-03
 -1.11956443E-01 -1.97127740E-01 -7.13917355E-02 -1.76062739E-01 -1.60547369E-01
 -4.36831998E-01  1.91684882E-01  1.74792824E-01  9.25357331E-01 -3.80938361E-02
 -2.89427893E-02 -2.63922320E-02 -2.01058799E-04 -2.17637843E-03 -1.11956443E-01
 -1.97127740E-01 -7.13917355E-02 -1.76062739E-01 -1.60547369E-01  4.36831998E-01
  1.91684882E-01  1.74792824E-01 -9.25357331E-01 -3.80938361E-02  2.89427893E-02
  2.63922320E-02 -2.01058799E-04 -2.17637843E-03  1.49961462E-14  3.31456572E-14
 -1.21164087E-14 -4.25215805E-01  4.66308854E-01  2.22666112E-14  4.16547406E-01
 -4.56802737E-01 -4.30229411E-14  3.07345880E-15 -7.30963815E-02  8.01604491E-02
 -4.50660389E-03  4.16330337E-04  1.76237779E-14  3.79503946E-14 -2.91642388E-14
 -4.25215805E-01  4.66308854E-01 -1.74892255E-14  4.16547406E-01 -4.56802737E-01
  4.31098217E-14  2.73452299E-15  7.30963815E-02 -8.01604491E-02 -4.50660389E-03
  4.16330337E-04  1.95620348E-01  4.41489199E-01 -3.04556203E-01 -4.25123840E-01
 -3.87660183E-01  1.35404110E-01  3.81679646E-01  3.48044470E-01 -3.36636156E-01
  3.22374322E-02 -6.40523490E-02 -5.84077933E-02 -2.51338365E-04 -2.72063396E-03
  1.95620348E-01  4.41489199E-01 -3.04556203E-01 -4.25123840E-01 -3.87660183E-01
 -1.35404110E-01  3.81679646E-01  3.48044470E-01  3.36636156E-01  3.22374322E-02
  6.40523490E-02  5.84077933E-02 -2.51338365E-04 -2.72063396E-03  3.90950784E-01
  9.69854526E-01 -8.68050604E-01  1.48488084E-01  1.35402705E-01 -3.24270651E-01
 -1.20605795E-01 -1.09977517E-01  2.14254745E-01  6.76852057E-02  4.62630606E-02
  4.21861699E-02  2.93593549E-04  3.17802887E-03  3.90950784E-01  9.69854526E-01
 -8.68050604E-01  1.48488084E-01  1.35402705E-01  3.24270651E-01 -1.20605795E-01
 -1.09977517E-01 -2.14254745E-01  6.76852057E-02 -4.62630606E-02 -4.21861699E-02
  2.93593549E-04  3.17802887E-03 -7.21139490E-02 -9.92342553E-02  9.72115207E-01
  5.44861348E-01  4.96845931E-01  1.67283427E-01 -8.35403170E-01 -7.61784015E-01
  3.56450889E-01 -3.87688594E-02 -8.69971615E-02 -7.93306147E-02 -8.25989996E-04
 -8.94100046E-03  7.21139490E-02  9.92342553E-02 -9.72115207E-01 -5.44861348E-01
 -4.96845931E-01  1.67283427E-01  8.35403170E-01  7.61784015E-01  3.56450889E-01
  3.87688594E-02 -8.69971615E-02 -7.93306147E-02  8.25989996E-04  8.94100046E-03
  6.78113383E-14  1.04173613E-13 -7.94634379E-13  5.09099751E-01 -5.58299383E-01
 -1.45471936E-13 -7.99899965E-01  8.77202662E-01 -2.73565390E-13  3.16900466E-14
 -8.11557884E-02  8.89987207E-02 -1.11229522E-02  1.02756367E-03 -5.12083364E-14
 -6.37429639E-14  7.58723787E-13 -5.09099751E-01  5.58299383E-01 -1.30713150E-13
  7.99899965E-01 -8.77202662E-01 -2.84519858E-13 -3.27393234E-14 -8.11557884E-02
  8.89987207E-02  1.11229522E-02 -1.02756367E-03 -2.21936242E-01 -3.92404780E-01
  1.53787146E+00 -1.47575831E-01 -1.34570844E-01  6.71242358E-01  1.77260503E-01
  1.61639580E-01  2.76996826E-01 -2.86919665E-01  1.55166336E-02  1.41492442E-02
  1.10213322E-03  1.19301368E-02  2.21936242E-01  3.92404780E-01 -1.53787146E+00
  1.47575831E-01  1.34570844E-01  6.71242358E-01 -1.77260503E-01 -1.61639580E-01
  2.76996826E-01  2.86919665E-01  1.55166336E-02  1.41492442E-02 -1.10213322E-03
 -1.19301368E-02 -4.66801699E-03 -1.35710142E-02  8.04194218E-03 -4.24854652E-02
 -3.87414717E-02  6.81922512E-03  1.78617263E-02  1.62876777E-02 -8.75079027E-04
 -1.80769854E-03  7.97728568E-02  7.27429455E-02  5.78877274E-02  6.26610733E-01
 -4.66801699E-03 -1.35710142E-02  8.04194218E-03 -4.24854652E-02 -3.87414717E-02
 -6.81922512E-03  1.78617263E-02  1.62876777E-02  8.75079027E-04 -1.80769854E-03
 -7.97728568E-02 -7.27429455E-02  5.78877274E-02  6.26610733E-01 -4.39174371E-14
 -9.80237809E-14  5.46868300E-13 -3.67183085E-02  4.02667825E-02 -2.16620409E-14
  1.59720697E-02 -1.75156178E-02  2.35154985E-13  3.05576219E-14  6.88855097E-02
 -7.55426367E-02  6.27759191E-01 -5.79938245E-02  6.28649210E-14  1.50176553E-13
 -5.75568738E-13 -3.67183085E-02  4.02667825E-02 -3.11079274E-15  1.59720697E-02
 -1.75156178E-02  2.40388750E-13 -3.04985664E-14 -6.88855097E-02  7.55426367E-02
  6.27759191E-01 -5.79938245E-02 -6.24324675E-01 -1.42472210E+00  6.78829491E+00
 -1.79557922E-02 -1.63734541E-02 -8.93916085E-02  2.54762665E-02  2.32311934E-02
  2.90654509E+00  3.28876227E-01  4.28182863E-03  3.90449633E-03 -3.75879139E-05
 -4.06873639E-04  6.24324675E-01  1.42472210E+00 -6.78829491E+00  1.79557922E-02
  1.63734541E-02 -8.93916085E-02 -2.54762665E-02 -2.32311934E-02  2.90654509E+00
 -3.28876227E-01  4.28182863E-03  3.90449633E-03  3.75879138E-05  4.06873639E-04
 -2.34301278E-02 -6.86782263E-02  2.76432446E-02 -2.36532041E-01 -2.15687868E-01
  2.02089932E-02  6.39591965E-02  5.83228497E-02  5.30744167E-03  4.13013635E-03
  4.34198091E-01  3.95934774E-01 -1.06561194E-02 -1.15348090E-01 -2.34301278E-02
 -6.86782263E-02  2.76432446E-02 -2.36532041E-01 -2.15687868E-01 -2.02089932E-02
  6.39591965E-02  5.83228497E-02 -5.30744167E-03  4.13013635E-03 -4.34198091E-01
 -3.95934774E-01 -1.06561194E-02 -1.15348090E-01  1.18777152E-15 -7.28760096E-15
 -1.60525785E-13  2.19388269E-01 -2.40590051E-01  1.42052957E-14 -5.95629771E-02
  6.53191703E-02 -7.41979832E-14 -4.26147252E-15 -3.97181742E-01  4.35565567E-01
  1.08932976E-01 -1.00634766E-02 -2.98326713E-14 -7.61741973E-14  1.94005921E-13
  2.19388269E-01 -2.40590051E-01 -9.64888725E-15 -5.95629771E-02  6.53191703E-02
 -8.23722406E-14  9.64027692E-15  3.97181742E-01 -4.35565567E-01  1.08932976E-01
 -1.00634766E-02 -1.64963884E-14 -1.64456511E-14  4.09140205E-13  2.02077169E-02
 -2.21605999E-02  7.87314864E-14  1.07605038E-02 -1.18004038E-02  1.65276402E-13
  8.43711790E-15  2.15458546E-02 -2.36280558E-02  7.97111072E-01 -7.36389372E-02
  1.99255192E-14  2.24809733E-14 -4.13511383E-13 -2.02077169E-02  2.21605999E-02
  7.73579438E-14 -1.07605038E-02  1.18004038E-02  1.66240032E-13 -1.55738979E-14
  2.15458546E-02 -2.36280558E-02 -7.97111072E-01  7.36389372E-02  4.25783601E-04
 -2.06128354E-03 -4.15405185E-02  2.25493388E-02  2.05621985E-02 -1.30679060E-02
  1.18204333E-02  1.07787682E-02 -1.60639872E-02 -2.19611779E-03  2.44690318E-02
  2.23127203E-02  7.36311595E-02  7.97026882E-01 -4.25783601E-04  2.06128354E-03
  4.15405185E-02 -2.25493388E-02 -2.05621985E-02 -1.30679060E-02 -1.18204333E-02
 -1.07787682E-02 -1.60639872E-02  2.19611779E-03  2.44690318E-02  2.23127203E-02
 -7.36311595E-02 -7.97026882E-01 -4.66633001E-01 -8.42812806E-01  3.85350982E-01
 -7.37867369E-03 -6.72843469E-03 -3.27234629E-01  1.15939244E-03  1.05722203E-03
  6.31549508E-01  9.17269932E-01 -4.78213221E-03 -4.36071110E-03  1.59406601E-04
  1.72551060E-03 -4.66633001E-01 -8.42812806E-01  3.85350982E-01 -7.37867369E-03
 -6.72843469E-03  3.27234629E-01  1.15939244E-03  1.05722203E-03 -6.31549508E-01
  9.17269932E-01  4.78213221E-03  4.36071110E-03  1.59406601E-04  1.72551060E-03
  1.59545433E-02  3.29347677E-02  1.35865279E-01  2.80909869E-01  2.56154939E-01
  7.09789530E-02  3.81371777E-01  3.47763732E-01  6.61282394E-02  5.28525448E-02
  8.85112153E-01  8.07112440E-01 -2.13523237E-03 -2.31130083E-02 -1.59545433E-02
 -3.29347677E-02 -1.35865279E-01 -2.80909869E-01 -2.56154939E-01  7.09789530E-02
 -3.81371777E-01 -3.47763732E-01  6.61282394E-02 -5.28525448E-02  8.85112153E-01
  8.07112440E-01  2.13523237E-03  2.31130083E-02 -7.87517635E-15 -1.57330230E-14
  5.42685673E-14 -2.57020288E-01  2.81858846E-01  3.63881460E-15 -3.48987577E-01
  3.82713895E-01  2.71430121E-14  1.04517271E-14 -8.08102421E-01  8.86197807E-01
  2.25921001E-02 -2.08710969E-03 -1.52005580E-15 -1.16212259E-15 -4.41865320E-14
  2.57020288E-01 -2.81858846E-01  7.09364052E-15  3.48987577E-01 -3.82713895E-01
  1.85332357E-14  6.34833474E-15 -8.08102421E-01  8.86197807E-01 -2.25921001E-02
  2.08710969E-03  3.60082502E-01  8.15370059E-01  3.10036145E+00 -2.37786827E-02
 -2.16832077E-02  1.33813843E+00 -1.16545506E-02 -1.06275038E-02  1.46659223E+00
  1.17972816E+00 -4.00547656E-02 -3.65249753E-02  4.68553182E-04  5.07189462E-03
 -3.60082502E-01 -8.15370059E-01 -3.10036145E+00  2.37786827E-02  2.16832077E-02
  1.33813843E+00  1.16545506E-02  1.06275038E-02  1.46659223E+00 -1.17972816E+00
 -4.00547656E-02 -3.65249753E-02 -4.68553182E-04 -5.07189462E-03
Beta MO coefficients                       R   N=         784
  7.07303054E-01  7.48541736E-04 -1.90108486E-03  9.71285605E-05  8.85691933E-05
  8.89599445E-04  4.01072840E-05  3.65728656E-05 -3.33299659E-04  5.39178442E-04
 -4.65419314E-04 -4.24404655E-04 -1.33185461E-05 -1.44167759E-04  7.07303054E-01
  7.48541735E-04 -1.90108486E-03  9.71285605E-05  8.85691933E-05 -8.89599445E-04
  4.01072840E-05  3.65728656E-05  3.33299659E-04  5.39178442E-04  4.65419314E-04
  4.24404655E-04 -1.33185461E-05 -1.44167759E-04  7.08804567E-01  2.43044832E-03
 -7.78245449E-03  1.70198018E-04  1.55199471E-04  1.81440806E-03 -1.17166253E-04
 -1.06841082E-04 -2.47640289E-03  8.07188426E-04 -5.41241035E-04 -4.93544655E-04
 -5.44951094E-06 -5.89887045E-05 -7.08804567E-01 -2.43044832E-03  7.78245449E-03
 -1.70198018E-04 -1.55199471E-04  1.81440806E-03  1.17166253E-04  1.06841082E-04
 -2.47640289E-03 -8.07188426E-04 -5.41241035E-04 -4.93544655E-04  5.44951094E-06
  5.89887045E-05 -1.53561457E-02  3.34068141E-01  1.96549783E-01 -9.24920600E-04
 -8.43412803E-04  2.04693280E-01  3.99767047E-03  3.64537935E-03  2.66540306E-02
  2.73979495E-02 -1.54209474E-02 -1.40619902E-02 -1.89333574E-04 -2.04945771E-03
 -1.53561457E-02  3.34068141E-01  1.96549783E-01 -9.24920600E-04 -8.43412803E-04
 -2.04693280E-01  3.99767047E-03  3.64537935E-03 -2.66540306E-02  2.73979495E-02
  1.54209474E-02  1.40619902E-02 -1.89333574E-04 -2.04945771E-03 -8.72740160E-04
  3.05138055E-01  4.29954924E-01  9.77677196E-02  8.91520271E-02 -2.07526538E-01
  7.86611219E-02  7.17291811E-02 -1.11184855E-01 -1.37852490E-02 -2.11815486E-02
 -1.93149437E-02  6.21021828E-04  6.72230472E-03  8.72740160E-04 -3.05138055E-01
 -4.29954924E-01 -9.77677196E-02 -8.91520271E-02 -2.07526538E-01 -7.86611219E-02
 -7.17291811E-02 -1.11184855E-01  1.37852490E-02 -2.11815486E-02 -1.93149437E-02
 -6.21021828E-04 -6.72230472E-03  1.00819160E-03 -6.96723233E-02 -2.34637260E-01
 -2.25982623E-01 -2.06068107E-01  3.40395406E-01 -1.18000375E-01 -1.07601698E-01
  1.50712156E-01  2.39261870E-02 -1.11816727E-02 -1.01962978E-02 -6.14166203E-04
 -6.64809541E-03  1.00819160E-03 -6.96723233E-02 -2.34637260E-01 -2.25982623E-01
 -2.06068107E-01 -3.40395406E-01 -1.18000375E-01 -1.07601698E-01 -1.50712156E-01
  2.39261870E-02  1.11816727E-02  1.01962978E-02 -6.14166203E-04 -6.64809541E-03
 -8.97284304E-16 -7.80615097E-16  2.30303226E-14 -2.82255317E-01  3.09532600E-01
  7.74921455E-16 -1.69582149E-01  1.85970645E-01  1.15083253E-14  1.03374891E-15
 -3.13164354E-02  3.43428700E-02 -9.79482233E-03  9.04868006E-04  1.03742255E-15
  1.31512896E-15 -2.37564831E-14 -2.82255317E-01  3.09532600E-01  3.07776769E-16
 -1.69582149E-01  1.85970645E-01  1.10778310E-14 -8.11587224E-16  3.13164354E-02
 -3.43428700E-02 -9.79482233E-03  9.04868006E-04 -2.26403967E-02  7.86517087E-03
  2.84805500E-01 -1.73511985E-01 -1.58221397E-01 -2.63114076E-01 -1.80299121E-01
 -1.64410423E-01 -2.31743066E-01 -4.70456020E-03 -2.59019792E-02 -2.36193905E-02
 -6.15691025E-04 -6.66460098E-03 -2.26403967E-02  7.86517087E-03  2.84805500E-01
 -1.73511985E-01 -1.58221397E-01  2.63114076E-01 -1.80299121E-01 -1.64410423E-01
  2.31743066E-01 -4.70456020E-03  2.59019792E-02  2.36193905E-02 -6.15691025E-04
 -6.66460098E-03 -7.77234739E-17  2.50129679E-15 -5.88444172E-18 -2.57183810E-01
  2.82038171E-01 -1.01883523E-15 -5.31736244E-01  5.83123477E-01 -6.99871629E-15
 -2.97489678E-17  9.95803710E-03 -1.09203863E-02 -1.80356400E-02  1.66617352E-03
  5.01076958E-16 -1.31168760E-15  9.80296646E-16  2.57183810E-01 -2.82038171E-01
  1.44870012E-16  5.31736244E-01 -5.83123477E-01 -4.22890266E-15  9.21449324E-17
  9.95803710E-03 -1.09203863E-02  1.80356400E-02 -1.66617352E-03  3.52654665E-03
 -4.64747672E-02  2.67973202E-01  2.50206601E-01  2.28157369E-01  7.27882135E-03
  6.00245911E-01  5.47349779E-01  2.94729052E-01  1.12003904E-02 -2.87503273E-03
 -2.62167306E-03  1.50145148E-03  1.62525920E-02 -3.52654665E-03  4.64747672E-02
 -2.67973202E-01 -2.50206601E-01 -2.28157369E-01  7.27882135E-03 -6.00245911E-01
 -5.47349779E-01  2.94729052E-01 -1.12003904E-02 -2.87503273E-03 -2.62167306E-03
 -1.50145148E-03 -1.62525920E-02 -4.17006309E-02  1.35666299E-01  4.62232479E+00
  7.62597924E-03  6.95394667E-03 -1.97395849E-03 -1.18132001E-01 -1.07721724E-01
  2.83461612E+00  7.91536595E-02 -5.77928383E-03 -5.26998964E-03  1.27613220E-04
  1.38136038E-03  4.17006309E-02 -1.35666299E-01 -4.62232479E+00 -7.62597924E-03
 -6.95394667E-03 -1.97395849E-03  1.18132001E-01  1.07721724E-01  2.83461612E+00
 -7.91536595E-02 -5.77928383E-03 -5.26998964E-03 -1.27613220E-04 -1.38136038E-03
 -1.11956443E-01 -1.97127740E-01 -7.13917355E-02  1.76062739E-01  1.60547369E-01
 -4.36831998E-01 -1.91684882E-01 -1.74792824E-01  9.25357331E-01 -3.80938361E-02
  2.89427893E-02  2.63922320E-02 -2.01058799E-04 -2.17637843E-03 -1.11956443E-01
 -1.97127740E-01 -7.13917355E-02  1.76062739E-01  1.60547369E-01  4.36831998E-01
 -1.91684882E-01 -1.74792824E-01 -9.25357331E-01 -3.80938361E-02 -2.89427893E-02
 -2.63922320E-02 -2.01058799E-04 -2.17637843E-03 -1.77680103E-14 -4.30868790E-14
 -7.92546302E-15 -4.25215805E-01  4.66308854E-01 -1.28481130E-14  4.16547406E-01
 -4.56802737E-01  9.22647646E-15 -2.76687460E-15 -7.30963815E-02  8.01604491E-02
  4.50660389E-03 -4.16330337E-04 -1.92526604E-14 -4.09812907E-14  6.68493601E-14
 -4.25215805E-01  4.66308854E-01  9.44307667E-15  4.16547406E-01 -4.56802737E-01
 -4.98541066E-14 -3.39938146E-15  7.30963815E-02 -8.01604491E-02  4.50660389E-03
 -4.16330337E-04  1.95620348E-01  4.41489199E-01 -3.04556203E-01  4.25123840E-01
  3.87660183E-01  1.35404110E-01 -3.81679646E-01 -3.48044470E-01 -3.36636156E-01
  3.22374322E-02  6.40523490E-02  5.84077933E-02 -2.51338365E-04 -2.72063396E-03
  1.95620348E-01  4.41489199E-01 -3.04556203E-01  4.25123840E-01  3.87660183E-01
 -1.35404110E-01 -3.81679646E-01 -3.48044470E-01  3.36636156E-01  3.22374322E-02
 -6.40523490E-02 -5.84077933E-02 -2.51338365E-04 -2.72063396E-03  3.90950784E-01
  9.69854526E-01 -8.68050604E-01 -1.48488084E-01 -1.35402705E-01 -3.24270651E-01
  1.20605795E-01  1.09977517E-01  2.14254745E-01  6.76852057E-02 -4.62630606E-02
 -4.21861699E-02  2.93593549E-04  3.17802887E-03  3.90950784E-01  9.69854526E-01
 -8.68050604E-01 -1.48488084E-01 -1.35402705E-01  3.24270651E-01  1.20605795E-01
  1.09977517E-01 -2.14254745E-01  6.76852057E-02  4.62630606E-02  4.21861699E-02
  2.93593549E-04  3.17802887E-03 -7.21139490E-02 -9.92342553E-02  9.72115207E-01
 -5.44861348E-01 -4.96845931E-01  1.67283427E-01  8.35403170E-01  7.61784015E-01
  3.56450889E-01 -3.87688594E-02  8.69971615E-02  7.93306147E-02 -8.25989996E-04
 -8.94100046E-03  7.21139490E-02  9.92342553E-02 -9.72115207E-01  5.44861348E-01
  4.96845931E-01  1.67283427E-01 -8.35403170E-01 -7.61784015E-01  3.56450889E-01
  3.87688594E-02  8.69971615E-02  7.93306147E-02  8.25989996E-04  8.94100046E-03