HF file generated by AutoMR of MOKIT
Stability RHF                                                         CC-pVDZ
Number of atoms                            I                2
Info1-9                                    I   N=           9
          12          11           0           0           0         110
           7           1           2
Charge                                     I                0
Multiplicity                               I                1
Number of electrons                        I               12
Number of alpha electrons                  I                6
Number of beta electrons                   I                6
Number of basis functions                  I               28
Number of independent functions            I               28
Number of point charges in /Mol/           I                0
Number of translation vectors              I                0
Atomic numbers                             I   N=           2
           6           6
Nuclear charges                            R   N=           2
  6.00000000E+00  6.00000000E+00
Current cartesian coordinates              R   N=           6
  0.00000000E+00  0.00000000E+00  0.00000000E+00  0.00000000E+00  0.00000000E+00
  2.34326040E+00
Force Field                                I                0
Int Atom Types                             I   N=           2
           0           0
MM charges                                 R   N=           2
  0.00000000E+00  0.00000000E+00
Integer atomic weights                     I   N=           2
          12          12
Real atomic weights                        R   N=           2
  1.20000000E+01  1.20000000E+01
Atom fragment info                         I   N=           2
           0           0
Atom residue num                           I   N=           2
           0           0
Nuclear spins                              I   N=           2
           0           0
Nuclear ZEff                               R   N=           2
 -3.60000000E+00 -3.60000000E+00
Nuclear QMom                               R   N=           2
  0.00000000E+00  0.00000000E+00
Nuclear GFac                               R   N=           2
  0.00000000E+00  0.00000000E+00
MicOpt                                     I   N=           2
          -1          -1
Number of contracted shells                I               12
Number of primitive shells                 I               44
Pure/Cartesian d shells                    I                0
Pure/Cartesian f shells                    I                0
Highest angular momentum                   I                2
Largest degree of contraction              I                8
Shell types                                I   N=          12
           0           0           0           1           1          -2
           0           0           0           1           1          -2
Number of primitives per shell             I   N=          12
           8           8           1           3           1           1
           8           8           1           3           1           1
Shell to atom map                          I   N=          12
           1           1           1           1           1           1
           2           2           2           2           2           2
Primitive exponents                        R   N=          44
  6.66500000E+03  1.00000000E+03  2.28000000E+02  6.47100000E+01  2.10600000E+01
  7.49500000E+00  2.79700000E+00  5.21500000E-01  6.66500000E+03  1.00000000E+03
  2.28000000E+02  6.47100000E+01  2.10600000E+01  7.49500000E+00  2.79700000E+00
  5.21500000E-01  1.59600000E-01  9.43900000E+00  2.00200000E+00  5.45600000E-01
  1.51700000E-01  5.50000000E-01  6.66500000E+03  1.00000000E+03  2.28000000E+02
  6.47100000E+01  2.10600000E+01  7.49500000E+00  2.79700000E+00  5.21500000E-01
  6.66500000E+03  1.00000000E+03  2.28000000E+02  6.47100000E+01  2.10600000E+01
  7.49500000E+00  2.79700000E+00  5.21500000E-01  1.59600000E-01  9.43900000E+00
  2.00200000E+00  5.45600000E-01  1.51700000E-01  5.50000000E-01
Contraction coefficients                   R   N=          44
  6.91583963E-04  5.32579615E-03  2.70607210E-02  1.01656846E-01  2.74574824E-01
  4.48294319E-01  2.84902611E-01  1.51948592E-02 -2.93269653E-04 -2.31803547E-03
 -1.14997860E-02 -4.68267270E-02 -1.28466169E-01 -3.01266272E-01 -2.55630702E-01
  1.09379336E+00  1.00000000E+00  5.69792516E-02  3.13207212E-01  7.60376742E-01
  1.00000000E+00  1.00000000E+00  6.91583963E-04  5.32579615E-03  2.70607210E-02
  1.01656846E-01  2.74574824E-01  4.48294319E-01  2.84902611E-01  1.51948592E-02
 -2.93269653E-04 -2.31803547E-03 -1.14997860E-02 -4.68267270E-02 -1.28466169E-01
 -3.01266272E-01 -2.55630702E-01  1.09379336E+00  1.00000000E+00  5.69792516E-02
  3.13207212E-01  7.60376742E-01  1.00000000E+00  1.00000000E+00
Coordinates of each shell                  R   N=          36
  0.00000000E+00  0.00000000E+00  0.00000000E+00  0.00000000E+00  0.00000000E+00
  0.00000000E+00  0.00000000E+00  0.00000000E+00  0.00000000E+00  0.00000000E+00
  0.00000000E+00  0.00000000E+00  0.00000000E+00  0.00000000E+00  0.00000000E+00
  0.00000000E+00  0.00000000E+00  0.00000000E+00  0.00000000E+00  0.00000000E+00
  2.34326040E+00  0.00000000E+00  0.00000000E+00  2.34326040E+00  0.00000000E+00
  0.00000000E+00  2.34326040E+00  0.00000000E+00  0.00000000E+00  2.34326040E+00
  0.00000000E+00  0.00000000E+00  2.34326040E+00  0.00000000E+00  0.00000000E+00
  2.34326040E+00
Constraint Structure                       R   N=           6
  0.00000000E+00  0.00000000E+00  0.00000000E+00  0.00000000E+00  0.00000000E+00
  2.34326040E+00
Num ILSW                                   I              100
ILSW                                       I   N=         100
           0           0           0           0           2           1
           0           0           0           0           0          -1
           0           0           0           0           0           0
           0           0           0           0           0           0
           1           1           0           0           0           0
           0           0      100000           0          -1           0
           0           0           0           0           0           0
           0           0           0           1           0           0
           0           0           1           0           0           0
           0           0           4          40           0           0
           0           0           0           0           0           0
           0           0           0           0           0           0
           0           0           0           0           0           0
           0           0           0           0           0           0
           0           0           0           0           0           0
           0           0           0           0           0           0
           0           0           0           0
Num RLSW                                   I               40
RLSW                                       R   N=          40
  1.00000000E+00  1.00000000E+00  1.00000000E+00  1.00000000E+00  1.00000000E+00
  0.00000000E+00  0.00000000E+00  1.00000000E+00  0.00000000E+00  0.00000000E+00
  0.00000000E+00  0.00000000E+00  1.00000000E+00  0.00000000E+00  0.00000000E+00
  0.00000000E+00  0.00000000E+00  1.00000000E+00  0.00000000E+00  0.00000000E+00
  0.00000000E+00  0.00000000E+00  1.00000000E+00  0.00000000E+00  0.00000000E+00
  0.00000000E+00  0.00000000E+00  1.00000000E+00  0.00000000E+00  0.00000000E+00
  0.00000000E+00  0.00000000E+00  1.00000000E+00  0.00000000E+00  0.00000000E+00
  0.00000000E+00  0.00000000E+00  0.00000000E+00  1.00000000E+00  1.00000000E+00
MxBond                                     I                1
NBond                                      I   N=           2
           1           1
IBond                                      I   N=           2
           2           1
RBond                                      R   N=           2
  3.00000000E+00  3.00000000E+00
Virial Ratio                               R      1.996773200146660E+00
SCF Energy                                 R     -7.548564491065345E+01
Total Energy                               R     -7.548564491065345E+01
S**2                                       R      1.230099081622202E+00
S**2 after annihilation                    R      1.534696883971831E+00
RMS Density                                R      2.891589065395345E-09
External E-field                           R   N=          35
  0.00000000E+00  0.00000000E+00  0.00000000E+00  0.00000000E+00  0.00000000E+00
  0.00000000E+00  0.00000000E+00  0.00000000E+00  0.00000000E+00  0.00000000E+00
  0.00000000E+00  0.00000000E+00  0.00000000E+00  0.00000000E+00  0.00000000E+00
  0.00000000E+00  0.00000000E+00  0.00000000E+00  0.00000000E+00  0.00000000E+00
  0.00000000E+00  0.00000000E+00  0.00000000E+00  0.00000000E+00  0.00000000E+00
  0.00000000E+00  0.00000000E+00  0.00000000E+00  0.00000000E+00  0.00000000E+00
  0.00000000E+00  0.00000000E+00  0.00000000E+00  0.00000000E+00  0.00000000E+00
IOpCl                                      I                0
IROHF                                      I                0
Alpha Orbital Energies                     R   N=          28
  2.00000000E+00  2.00000000E+00  2.00000000E+00  1.88621369E+00  1.88621133E+00
  1.64940826E+00  3.55050340E-01  1.11559102E-01  1.11557284E-01  0.00000000E+00
  0.00000000E+00  0.00000000E+00  0.00000000E+00  0.00000000E+00  0.00000000E+00
  0.00000000E+00  0.00000000E+00  0.00000000E+00  0.00000000E+00  0.00000000E+00
  0.00000000E+00  0.00000000E+00  0.00000000E+00  0.00000000E+00  0.00000000E+00
  0.00000000E+00  0.00000000E+00  0.00000000E+00
Alpha MO coefficients                      R   N=         784
  7.07392778E-01  9.22226541E-04 -2.16632040E-03  1.39571008E-08  1.27599619E-08
  5.18276336E-04  1.01922175E-08  9.31661346E-09  1.67214885E-04  3.38260683E-04
 -2.07385348E-09 -1.89068268E-09 -4.01640151E-09 -4.35422281E-08  7.07391606E-01
  9.22223431E-04 -2.16629041E-03 -1.39194161E-08 -1.26659593E-08 -5.18276807E-04
 -1.03229573E-08 -9.39211707E-09 -1.67223815E-04  3.38262918E-04 -2.21579230E-09
 -2.02141649E-09 -4.00267087E-09 -4.34254978E-08  7.08655888E-01  1.28213752E-03
 -1.15477298E-02 -4.82885996E-08 -4.40639923E-08  1.10802040E-03 -2.41266446E-08
 -2.20119287E-08 -3.09723977E-03  4.02281231E-05 -2.32323280E-09 -2.12172433E-09
 -1.78712817E-09 -1.93347914E-08 -7.08657056E-01 -1.28213667E-03  1.15477314E-02
 -4.81141253E-08 -4.38820385E-08  1.10802151E-03 -2.39194953E-08 -2.18254382E-08
 -3.09723914E-03 -4.02288529E-05  2.54548312E-09  2.32046959E-09  1.77955964E-09
  1.93259129E-08 -1.78480754E-02  3.24123692E-01  1.91585027E-01 -9.07093867E-08
 -8.25685596E-08  2.16784473E-01 -3.60834332E-08 -3.27813726E-08  4.13829381E-02
  2.21289000E-02  3.39302963E-11 -3.00461098E-11 -6.03337462E-08 -6.54078416E-07
 -1.78480732E-02  3.24123696E-01  1.91585005E-01 -2.59532530E-08 -2.35522990E-08
 -2.16784476E-01 -3.72957875E-08 -3.38655314E-08 -4.13829253E-02  2.21289026E-02
  8.39972674E-09  7.72230638E-09 -6.02547092E-08 -6.53855300E-07  4.23556750E-11
  6.63487259E-13 -3.92812113E-10 -2.94583244E-01  3.22979915E-01  1.32535252E-10
 -1.62883707E-01  1.78585058E-01  1.82647014E-11  4.43540928E-11 -1.77036059E-02
  1.94101642E-02  1.40619222E-08 -1.24130545E-09  3.17792269E-12  1.73707541E-11
 -2.08443912E-10 -2.94583243E-01  3.22979914E-01 -8.65968991E-11 -1.62883704E-01
  1.78585055E-01 -4.73133748E-11  5.60181140E-11  1.77036053E-02 -1.94101637E-02
 -1.96482269E-08  1.90378680E-09 -1.36815652E-07  1.87509552E-07  6.35685202E-06
  3.22979952E-01  2.94583279E-01 -7.37357960E-08  1.78585104E-01  1.62883752E-01
  2.67476115E-06  2.64994694E-07  1.94098871E-02  1.77033532E-02  8.96638229E-09
  9.27319280E-08  1.41057649E-07 -7.70279881E-08 -6.41067107E-06  3.22979951E-01
  2.94583276E-01 -3.03210621E-07  1.78585117E-01  1.62883759E-01  2.58274654E-06
 -2.60394180E-07 -1.94098904E-02 -1.77033560E-02 -7.45439187E-09 -8.98806483E-08
 -9.02700704E-03 -3.28178369E-01 -4.15385831E-01  6.07075545E-07  5.53159247E-07
  2.28310353E-01  2.80247141E-07  2.55898899E-07  1.15397831E-01 -3.02443647E-03
  1.91698298E-09  1.86704450E-09  1.31493444E-07  1.42638397E-06  9.02700797E-03
  3.28178371E-01  4.15385829E-01  6.16281548E-07  5.62388702E-07  2.28310353E-01
  2.94400048E-07  2.68281408E-07  1.15397832E-01  3.02443641E-03  1.03580295E-09
  9.48223780E-10 -1.31464319E-07 -1.42629478E-06  3.99702913E-02  2.10897401E-01
  2.28053411E-01 -3.08574895E-07 -2.81240111E-07 -4.84759486E-01 -3.95724283E-07
 -3.60719089E-07 -1.96193600E-01 -4.70605851E-03  1.37994228E-07  1.25975359E-07
  4.58454472E-07  4.97424368E-06  3.99702929E-02  2.10897404E-01  2.28053404E-01
  4.09169771E-07  3.73250671E-07  4.84759490E-01  4.56705059E-07  4.16692214E-07
  1.96193599E-01 -4.70605565E-03  1.24917419E-07  1.13807282E-07  4.58541645E-07
  4.97435068E-06 -6.58096034E-07 -1.84550734E-06  8.78651999E-07 -4.56528949E-01
 -4.16412495E-01  6.07647818E-07 -2.39439751E-01 -2.18399522E-01 -1.15533275E-07
 -4.61168933E-08  4.73761439E-02  4.32130710E-02 -1.12682865E-08 -1.21832433E-07
 -6.34572576E-07 -1.68477942E-06  1.42779101E-06  4.56528950E-01  4.16412496E-01
 -9.32952704E-07  2.39439749E-01  2.18399520E-01 -1.86290032E-07 -2.04743210E-07
  4.73761458E-02  4.32130724E-02 -6.96538192E-09 -7.79996134E-08  1.81349757E-11
  1.40754504E-10 -1.34141730E-10  4.16419425E-01 -4.56536549E-01 -3.15751786E-10
  2.18393823E-01 -2.39433500E-01 -1.27501380E-10  8.86573911E-11 -4.32047370E-02
  4.73670062E-02  6.14721126E-08 -5.48286465E-09 -7.69612633E-12 -5.75551135E-11
  1.71507207E-10 -4.16419424E-01  4.56536548E-01 -2.21486965E-10 -2.18393824E-01
  2.39433503E-01 -4.39831631E-11 -1.66320346E-11 -4.32047379E-02  4.73670065E-02
  2.58947849E-08 -2.55746028E-09 -4.49841863E-02  1.21064144E-01  4.69242574E+00
 -1.61383057E-07 -1.47073528E-07 -1.66972162E-02 -2.39149412E-07 -2.18489841E-07
  2.88613679E+00  9.02372913E-02 -1.44463416E-08 -1.31943891E-08 -3.56569734E-09
 -4.12059820E-08  4.49842191E-02 -1.21064077E-01 -4.69242575E+00 -1.24598890E-07
 -1.13813713E-07 -1.66972900E-02  3.29134780E-09  3.41038196E-09  2.88613695E+00
 -9.02372818E-02  1.26454860E-08  1.15270155E-08  5.32455426E-09  4.13082707E-08
 -7.69590806E-02 -1.11250717E-01 -1.91258095E-01  4.08590898E-08  3.65677104E-08
 -4.94595277E-01 -3.11229963E-07 -2.83225303E-07  1.02719434E+00 -2.64831839E-02
 -1.79861228E-08 -1.64782581E-08  6.83494531E-08  7.41943801E-07 -7.69590440E-02
 -1.11250675E-01 -1.91259150E-01 -7.78819189E-08 -7.16917773E-08  4.94595290E-01
  3.38911744E-07  3.09887036E-07 -1.02719375E+00 -2.64831972E-02 -1.38531258E-08
 -1.25701799E-08  6.80061344E-08  7.37674282E-07  1.60124658E-08  2.61774912E-08
 -1.68494457E-07 -4.48331695E-01 -4.43584147E-01 -7.21449832E-09  4.42276219E-01
  4.37592647E-01 -4.96218388E-08  9.00500938E-10 -7.10698290E-02 -7.03172853E-02
 -8.40639131E-10 -7.81529104E-09 -5.93158248E-08 -1.31290154E-07  2.85110092E-07
 -4.48331559E-01 -4.43584234E-01 -5.87940757E-08  4.42275893E-01  4.37592856E-01
  1.90478443E-08 -5.48023886E-09  7.10698571E-02  7.03172701E-02  6.38904272E-10
  6.75257358E-09  1.44284570E-09  3.03789009E-09 -8.48460991E-09 -4.43584048E-01
  4.48331495E-01 -9.46883194E-10  4.37592623E-01 -4.42275979E-01 -9.89577060E-10
  1.63230384E-10 -7.03173208E-02  7.10698876E-02  1.27557560E-09 -4.42050425E-10
 -1.56372700E-09 -3.22471184E-09  9.22889125E-09 -4.43584180E-01  4.48331584E-01
 -1.70837805E-09  4.37592933E-01 -4.42276197E-01  1.26924425E-10 -1.17731181E-10
  7.03173008E-02 -7.10698655E-02 -2.74741495E-09  5.24345445E-10 -7.97740384E-09
 -1.89841550E-08  1.99640031E-08  3.86506799E-01 -4.24608627E-01  2.03472051E-09
 -9.35522071E-01  1.02774561E+00  1.62479332E-09 -1.37130303E-09 -7.63719835E-02
  8.39006893E-02  1.47552724E-08 -1.36581760E-09 -7.61521132E-09 -1.83983007E-08
  1.34201105E-08 -3.86506802E-01  4.24608389E-01 -2.34546147E-09  9.35522072E-01
 -1.02774538E+00  1.63448744E-09 -1.65494389E-09 -7.63719822E-02  8.39007308E-02
  7.89433268E-09 -7.92494418E-10 -8.27014010E-06 -1.98424730E-05  1.81302852E-05
 -4.24612698E-01 -3.86510600E-01  2.22861914E-06  1.02774368E+00  9.35520387E-01
  2.69578593E-07 -1.53322507E-06  8.39026903E-02  7.63738000E-02 -3.68525542E-09
 -3.97323201E-08 -8.29127898E-06 -1.98776293E-05  1.73450613E-05  4.24612707E-01
  3.86510664E-01 -2.47346090E-06 -1.02774368E+00 -9.35520445E-01  3.59483361E-07
 -1.68224731E-06  8.39026923E-02  7.63737931E-02 -2.79351618E-09 -3.11434268E-08
  4.41232792E-01  1.06056022E+00 -9.47269571E-01 -8.63941068E-06 -7.88087477E-06
 -1.38598852E-01  1.89177982E-05  1.72543528E-05  1.57237603E-02  8.52137547E-02
  1.65494255E-06  1.50894796E-06  1.04703060E-07  1.13016548E-06  4.41232724E-01
  1.06056009E+00 -9.47268684E-01  8.57687638E-06  7.82032714E-06  1.38598817E-01
 -1.88789505E-05 -1.72157756E-05 -1.57241562E-02  8.52137661E-02  1.66486136E-06
  1.51864687E-06  1.04555225E-07  1.12992985E-06 -2.55868494E-01 -4.40492557E-01
  1.98002044E+00 -2.45992986E-07 -2.24467562E-07  6.61114265E-01  1.28497689E-07
  1.16991271E-07  4.64900020E-01 -2.94275635E-01  8.37560115E-09  7.76108177E-09
  1.48231411E-08  1.49949661E-07  2.55868524E-01  4.40492628E-01 -1.98002050E+00
  9.12999256E-08  8.33581041E-08  6.61114260E-01 -1.33021643E-07 -1.21105387E-07
  4.64900052E-01  2.94275647E-01  4.97982475E-08  4.55579922E-08 -4.17518492E-09
 -1.50500583E-07 -8.45674632E-07 -2.82383768E-06  1.41391016E-07 -9.19723072E-08
 -8.95561029E-08  4.89502435E-06  1.95980149E-08  1.79007237E-08  1.58881704E-07
 -2.99464480E-07  1.12108312E-08  1.02268919E-08  9.42596213E-03  6.39875721E-01
 -8.59078036E-07 -2.85465289E-06  2.93223716E-07  9.16116566E-08  8.89873918E-08
 -4.89328750E-06 -2.00143399E-08 -1.85704058E-08 -2.24480361E-07 -2.90815655E-07
  1.43905477E-08  1.40347368E-08  9.42595481E-03  6.39875703E-01  1.75437529E-08
  1.12303349E-07  5.18932386E-07  4.43129574E-08 -3.34199230E-08 -3.73562192E-07
 -1.94993735E-09 -5.80928987E-10  2.18171864E-07  6.23116771E-08 -1.88232910E-09
  6.64177278E-10 -6.39875702E-01  9.42595897E-03  1.06288280E-07  3.12780770E-07
 -5.46738604E-07 -4.16888380E-08  3.18590578E-08  3.89581318E-07  3.19986377E-09
 -1.60768516E-10  2.36242195E-07  4.85288271E-10 -5.88309714E-09  3.85820214E-09
 -6.39875724E-01  9.42595801E-03 -6.10274495E-01 -1.39943996E+00  6.74458375E+00
 -5.13867611E-08 -4.67071531E-08 -8.19683726E-02 -7.66981334E-08 -7.04144048E-08
  2.89106326E+00  3.58758787E-01 -6.43925225E-08 -5.88498473E-08  7.23802963E-08
  1.92028201E-07  6.10274532E-01  1.39944005E+00 -6.74458382E+00 -1.91105343E-07
 -1.74556049E-07 -8.19683776E-02 -2.87607098E-08 -2.56897533E-08  2.89106329E+00
 -3.58758774E-01  3.98007755E-08  3.61008202E-08  2.12728943E-08 -1.79022264E-07
  7.09856199E-08  1.78091240E-07 -6.94539165E-07  2.28691109E-01  2.03843553E-01
 -2.10947286E-08 -6.83385832E-02 -6.09135208E-02 -3.26452511E-07 -1.70709118E-08
 -4.48622778E-01 -3.99879404E-01 -1.60839508E-09 -1.26746360E-08 -6.96611856E-08
 -1.76124199E-07  6.98236261E-07  2.28691100E-01  2.03843541E-01 -1.30264469E-08
 -6.83385891E-02 -6.09135171E-02 -3.23001305E-07  1.25579231E-08  4.48622794E-01
  3.99879418E-01  7.29453936E-10  7.76338358E-09 -8.00819183E-10 -1.95250167E-09
  7.57223602E-09  2.03843764E-01 -2.28691329E-01  2.87842123E-10 -6.09134622E-02
  6.83385214E-02  3.60730713E-09  2.64259794E-10 -3.99879391E-01  4.48622769E-01
 -2.41588678E-08  2.47924127E-09  7.47427646E-10  1.90710151E-09 -7.68096808E-09
  2.03843760E-01 -2.28691327E-01  6.32064560E-11 -6.09134623E-02  6.83385176E-02
  3.47808277E-09 -1.32033456E-11  3.99879396E-01 -4.48622768E-01  1.92834021E-08
 -1.67949754E-09 -1.84376336E-07 -9.13926637E-07  1.22643147E-06  5.33179475E-08
  4.80180441E-08  6.35486960E-07  1.83402606E-08  1.68921732E-08  9.44501491E-07
  1.26077919E-07  6.39358673E-09  8.59706858E-09  3.15252764E-02 -8.00488936E-01
  1.84764536E-07  9.14881189E-07 -1.22850781E-06  2.60580940E-08  1.75941216E-08
  6.37704674E-07  1.57723788E-08  1.38287771E-08  9.39299852E-07 -1.27621896E-07
 -7.95278173E-09 -9.91796245E-09 -3.15252762E-02  8.00488951E-01 -2.80998700E-08
 -1.31114004E-07  2.15921643E-07  5.38788684E-09  8.21612475E-09  7.92190298E-08
  2.97154762E-09  1.55379128E-09  1.47537859E-07  1.78633513E-08  1.11508931E-08
 -1.01217526E-08 -8.00488953E-01 -3.15252728E-02  3.15852865E-08  1.37489415E-07
 -2.19165395E-07 -2.11727890E-08  2.89009716E-08  7.71354364E-08  6.30954385E-11
  3.95568018E-09  1.51387573E-07 -2.46347891E-08 -1.18561673E-08  1.06601997E-08
  8.00488935E-01  3.15252797E-02 -4.69104851E-01 -8.48199953E-01  3.90992385E-01
  4.88087260E-09  4.40823955E-09 -3.20970075E-01  1.04207454E-08  9.30715097E-09
  6.29245059E-01  9.17249770E-01  2.29665726E-08  2.05002812E-08  1.83625653E-08
  1.62489576E-07 -4.69104862E-01 -8.48199978E-01  3.90992384E-01  4.55579395E-10
  5.50640375E-10  3.20970096E-01 -1.01582187E-08 -9.17432769E-09 -6.29245056E-01
  9.17249749E-01  2.44401556E-08  2.19984209E-08  2.44204651E-08  1.64024975E-07
  4.47983046E-10  4.38129441E-09  2.54422971E-09 -3.02095007E-01  2.45359494E-01
 -8.70777232E-09 -3.98933275E-01  3.24012607E-01 -2.44592638E-10  4.20844724E-09
 -9.30549482E-01  7.55790714E-01 -2.09524876E-09  2.11136767E-10 -1.58643507E-10
  2.92505107E-09  1.71588067E-09  3.02095008E-01 -2.45359494E-01  1.12340804E-08
  3.98933276E-01 -3.24012607E-01  5.25963840E-10  3.65739112E-09 -9.30549479E-01
  7.55790713E-01 -1.08163719E-10  1.97443379E-10 -3.68678287E-09 -3.05282704E-08
 -1.35578617E-08  2.45366095E-01  3.02099429E-01  5.74682813E-08  3.24013694E-01
  3.98934002E-01  4.04017841E-09 -2.59045704E-08  7.55789958E-01  9.30548974E-01
 -2.46754855E-10  2.23510640E-10  4.14410012E-10 -2.04626839E-08 -1.38159065E-08
 -2.45366095E-01 -3.02099433E-01 -7.41576654E-08 -3.24013695E-01 -3.98933999E-01
 -3.06991186E-09 -2.35902413E-08  7.55789948E-01  9.30548968E-01 -2.13003861E-10
 -1.58843520E-09  3.68924153E-01  8.35724277E-01  3.00743180E+00 -4.22189346E-08
 -3.85707065E-08  1.35251457E+00 -1.59035538E-08 -1.45255977E-08  1.42271110E+00
  1.17032719E+00  5.60470566E-09  5.04652384E-09  1.04626803E-08  7.51845650E-08
 -3.68924145E-01 -8.35724264E-01 -3.00743180E+00 -3.38322048E-08 -3.07997456E-08
  1.35251457E+00 -1.76387208E-08 -1.60676292E-08  1.42271111E+00 -1.17032721E+00
  1.56158090E-09  1.34565083E-09 -1.82082062E-09 -7.50648847E-08
Total SCF Density                          R   N=         406
  2.00653417E+00 -5.68763637E-04  4.03552140E-01 -1.68492771E-02  3.66085738E-01
  3.76749105E-01 -1.08728870E-07 -2.02385919E-07  3.35349023E-06  4.03042001E-01
 -9.91043871E-08 -1.84183966E-07  3.05867198E-06 -5.43077142E-07  4.03042103E-01
 -1.57135216E-02 -1.93490550E-02 -1.12638450E-01  1.66343168E-07  1.51726582E-07
  2.63404335E-01 -5.67956719E-08 -9.23010991E-08  1.88058420E-06  2.21641447E-01
  1.99420050E-07  1.16839207E-07  1.21916245E-01 -5.17622277E-08 -8.42477584E-08
  1.71487203E-06  2.01332865E-07  2.21641412E-01  1.06792328E-07  3.60267454E-07
  1.21916180E-01 -1.01328512E-02 -5.03369301E-02 -7.90221366E-02  1.76519578E-06
  1.60992731E-06  9.51595027E-02  9.82142351E-07  8.95860625E-07  3.90755173E-02
 -2.76088797E-04  1.56304705E-02  1.01678504E-02  1.57243348E-07  1.43469426E-07
  9.26588910E-03  8.81548259E-08  8.04312093E-08  1.58353360E-03  1.00255930E-03
 -1.27868919E-08  6.41773637E-09  2.47324999E-07  1.72416969E-02 -5.89900736E-07
 -2.25123281E-08  9.65923445E-03 -3.62505276E-07  8.80843578E-08  9.21588890E-09
  1.76042357E-03 -1.16605017E-08  5.75919059E-09  2.25457188E-07 -5.89887205E-07
  1.72418057E-02 -2.05283940E-08 -3.62585390E-07  9.65930138E-03  8.03494908E-08
  8.40596060E-09  7.25000561E-08  1.76041021E-03 -1.51327762E-09 -7.59718934E-08
 -7.60295677E-08  1.07858110E-09  1.09415635E-08 -5.55560022E-08  4.98692480E-10
  6.12411513E-09 -1.18908846E-08 -4.09508028E-09 -4.97113350E-10  1.08476450E-09
  1.11423107E-13 -1.63042132E-08 -8.23768905E-07 -8.24494144E-07  6.31340203E-08
  5.67097725E-08 -6.02669797E-07  3.47388264E-08  3.11870306E-08 -1.29033304E-07
 -4.44060000E-08  2.81923419E-09  2.43500661E-09  1.20003869E-12  1.30189435E-11
 -2.51062496E-03 -1.39757849E-02  3.51468010E-03  2.14334257E-07  1.95556688E-07
 -1.20556190E-02  1.12924107E-07  1.03039857E-07  2.08303207E-03 -4.80184179E-04
  4.15471433E-09  3.80004554E-09  7.46824609E-09  8.09783291E-08  2.00653416E+00
 -1.39757841E-02  4.82595893E-02 -8.35518330E-02  2.85718990E-07  2.60456763E-07
  2.27814105E-01  1.17805705E-07  1.07721505E-07  7.46086729E-02  1.23560088E-02
 -3.30162171E-10 -2.67770058E-10  6.63921005E-08  7.20533825E-07 -5.68766462E-04
  4.03552149E-01  3.51469315E-03 -8.35518473E-02 -1.92979881E-01 -3.62301454E-06
 -3.30501987E-06  2.00262207E-01 -2.05196088E-06 -1.87142337E-06  7.89623265E-02
  6.02537787E-03 -2.14694495E-07 -1.95763298E-07  1.04070720E-07  1.12915831E-06
 -1.68492566E-02  3.66085726E-01  3.76749085E-01 -2.07218939E-07 -2.99694270E-07
  3.51974014E-06  3.17850786E-01  1.76486409E-07  1.36248050E-07  1.76961328E-01
 -3.72372567E-07  1.71054377E-06  1.54139571E-07  2.60815463E-02  2.57488829E-07
 -5.78042168E-09  5.12347939E-08  1.18022322E-07  2.14766325E-07 -3.38823485E-06
  4.03041999E-01 -1.88915951E-07 -2.73411712E-07  3.20968331E-06  1.76883180E-07
  3.17850753E-01  1.24540724E-07 -3.73721377E-07  1.76961398E-01  1.56022091E-06
  1.40648893E-07  2.57560705E-07  2.60814989E-02  1.61562840E-08  4.48330355E-08
  1.07687165E-07  1.96132800E-07 -3.09030193E-06 -5.44045944E-07  4.03042098E-01
  1.20556172E-02 -2.27814104E-01 -2.00262217E-01  7.75425090E-08  7.04105721E-08
 -9.14465793E-02 -2.41887715E-08 -2.20133618E-08 -8.26089665E-03 -1.15435773E-02
  8.42711445E-09  7.76867730E-09  1.54582886E-07  1.67687080E-06  1.57135178E-02
  1.93490528E-02  1.12638457E-01  8.14863236E-08  7.42698966E-08  2.63404340E-01
 -1.08755471E-07 -1.35556131E-07  1.98647584E-06  1.76961336E-01 -3.64648039E-07
  7.38535640E-09  9.84829295E-02 -4.34127837E-07  9.19182766E-07  8.41243584E-08
  1.42954584E-02  1.81008649E-07 -3.09849691E-09  2.84988347E-08  6.20565851E-08
  9.84678358E-08 -1.89734455E-06  2.21641453E-01  2.07740148E-07  7.85726032E-08
  1.21916252E-01 -9.91471491E-08 -1.23397350E-07  1.81180562E-06 -3.65475272E-07
  1.76961402E-01  6.75602061E-09 -4.35453046E-07  9.84830100E-02  8.38330377E-07
  7.67673617E-08  1.81008794E-07  1.42954250E-02  8.85906140E-09  2.49587750E-08
  5.66399779E-08  8.97977637E-08 -1.73073856E-06  2.06988636E-07  2.21641413E-01
  7.14692516E-08  3.68304456E-07  1.21916183E-01 -2.08303721E-03 -7.46086645E-02
 -7.89623238E-02  1.68479982E-06  1.53652010E-06 -8.26089017E-03  9.03894449E-07
  8.24456064E-07  4.89207160E-03 -2.73536262E-03  1.03564159E-07  9.44906236E-08
  6.19695471E-08  6.72264281E-07  1.01328449E-02  5.03369388E-02  7.90221430E-02
  1.71222640E-06  1.56167802E-06  9.51594978E-02  9.56123209E-07  8.71981126E-07
  3.90755152E-02 -4.80181304E-04  1.23560105E-02  6.02538007E-03 -1.48695931E-07
 -1.35553582E-07  1.15435777E-02 -8.17910687E-08 -7.45574382E-08  2.73536319E-03
  9.72377948E-04 -1.08379618E-08 -9.88383184E-09 -2.78288316E-09 -3.01718573E-08
 -2.76085252E-04  1.56304726E-02  1.01678506E-02 -1.67855766E-07 -1.53030629E-07
 -9.26588990E-03 -9.41495988E-08 -8.58330939E-08 -1.58353306E-03  1.00255952E-03
  3.46248363E-09 -2.37897067E-09 -2.15525997E-07 -2.60815483E-02 -2.59788830E-07
 -1.15477098E-08 -1.42954591E-02 -1.81877990E-07 -1.06361211E-07 -9.78787783E-09
 -8.43158418E-04  1.10998456E-07 -2.14522434E-10 -4.05374884E-09 -1.37722780E-08
  9.26535973E-09  2.56351706E-07 -1.72416984E-02  5.87801080E-07  2.44243635E-08
 -9.65923572E-03  3.60931037E-07 -8.73548015E-08  8.61965935E-09  1.76042380E-03
  3.14884862E-09 -2.14078262E-09 -1.96540753E-07 -2.59509783E-07 -2.60815003E-02
 -1.04945099E-08 -1.81601788E-07 -1.42954256E-02 -9.69977343E-08 -8.92654873E-09
  1.11014114E-07 -8.43178879E-04 -5.43716536E-10 -3.66719349E-09 -1.25646935E-08
  8.48055275E-09  2.33844511E-07  5.88064077E-07 -1.72418067E-02  2.22332955E-08
  3.61007683E-07 -9.65930218E-03 -7.96850423E-08  7.86077494E-09  7.27564957E-08
  1.76041038E-03  7.47491262E-09  6.64341014E-08  1.04088243E-07  7.93370659E-09
 -1.71072875E-08 -1.54552658E-07  4.34240842E-09 -9.43080015E-09 -6.19634779E-08
 -2.77966709E-09  2.21595715E-10 -8.65001511E-10  5.29617220E-14  5.78462182E-13
 -1.48427027E-09 -7.58983237E-08 -7.59725196E-08  4.81845587E-09 -1.51166963E-08
  5.55476788E-08  2.70865889E-09 -8.38676351E-09  1.18960087E-08 -4.09157332E-09
 -5.44797430E-10  1.07154453E-09  1.11372388E-13  8.11229661E-08  7.20638356E-07
  1.12919110E-06 -5.19620295E-08 -4.50300471E-08 -1.67675881E-06 -2.88412560E-08
 -2.50054960E-08 -6.72236212E-07 -3.01625312E-08 -3.75388752E-09 -3.32093472E-09
  5.78142861E-13  6.27332201E-12 -1.61315482E-08 -8.23567776E-07 -8.24339598E-07
 -5.96682881E-08 -5.25363726E-08  6.02624972E-07 -3.28821676E-08 -2.89416088E-08
  1.29039297E-07 -4.43957790E-08  2.95449435E-09  2.54227155E-09  1.19958495E-12
  1.30163392E-11
Mulliken Charges                           R   N=           2
  9.59232693E-14 -9.23705556E-14
ONIOM Charges                              I   N=          16
           0           0           0           0           0           0
           0           0           0           0           0           0
           0           0           0           0
ONIOM Multiplicities                       I   N=          16
           1           0           0           0           0           0
           0           0           0           0           0           0
           0           0           0           0
Atom Layers                                I   N=           2
           1           1
Atom Modifiers                             I   N=           2
           0           0