HF file generated by AutoMR of MOKIT
Stability RHF                                                         Gen
Number of atoms                            I                2
Info1-9                                    I   N=           9
           6           5           0           0           0         110
           7           1           2
Charge                                     I                0
Multiplicity                               I                1
Number of electrons                        I               48
Number of alpha electrons                  I               24
Number of beta electrons                   I               24
Number of basis functions                  I               90
Number of independent functions            I               90
Number of point charges in /Mol/           I                0
Number of translation vectors              I                0
Atomic numbers                             I   N=           2
          24          24
Nuclear charges                            R   N=           2
  2.40000000E+01  2.40000000E+01
Current cartesian coordinates              R   N=           6
  0.00000000E+00  0.00000000E+00  0.00000000E+00  0.00000000E+00  0.00000000E+00
  3.77945227E+00
Force Field                                I                0
Int Atom Types                             I   N=           2
           0           0
MM charges                                 R   N=           2
  0.00000000E+00  0.00000000E+00
Integer atomic weights                     I   N=           2
          52          52
Real atomic weights                        R   N=           2
  5.19405097E+01  5.19405097E+01
Atom fragment info                         I   N=           2
           1           2
Atom residue num                           I   N=           2
           0           0
Nuclear spins                              I   N=           2
           0           0
Nuclear ZEff                               R   N=           2
 -2.47200000E+01 -2.47200000E+01
Nuclear QMom                               R   N=           2
  0.00000000E+00  0.00000000E+00
Nuclear GFac                               R   N=           2
  0.00000000E+00  0.00000000E+00
MicOpt                                     I   N=           2
          -1          -1
Number of contracted shells                I               30
Number of primitive shells                 I               72
Pure/Cartesian d shells                    I                0
Pure/Cartesian f shells                    I                0
Highest angular momentum                   I                3
Largest degree of contraction              I                8
Shell types                                I   N=          30
           0           0           0           0           0           0
           1           1           1          -2          -2          -2
           1          -2          -3           0           0           0
           0           0           0           1           1           1
          -2          -2          -2           1          -2          -3
Number of primitives per shell             I   N=          30
           8           4           2           1           1           1
           6           3           1           4           1           1
           1           1           1           8           4           2
           1           1           1           6           3           1
           4           1           1           1           1           1
Shell to atom map                          I   N=          30
           1           1           1           1           1           1
           1           1           1           1           1           1
           1           1           1           2           2           2
           2           2           2           2           2           2
           2           2           2           2           2           2
Primitive exponents                        R   N=          72
  2.54477807E+05  3.81317971E+04  8.67529306E+03  2.45500998E+03  7.99162178E+02
  2.86900215E+02  1.11254132E+02  4.38641526E+01  2.79326692E+02  8.62747324E+01
  1.35557561E+01  5.69781128E+00  8.56365826E+00  1.39882968E+00  5.72881711E-01
  9.00961713E-02  3.41258851E-02  1.30643989E+03  3.09253114E+02  9.89962740E+01
  3.67569165E+01  1.45666571E+01  5.87399374E+00  2.28909997E+01  3.08550018E+00
  1.21323291E+00  4.49316807E-01  4.37200745E+01  1.23912427E+01  4.26394420E+00
  1.55252218E+00  5.37619295E-01  1.64931731E-01  1.20675000E-01  5.10000000E-02
  1.14700000E+00  2.54477807E+05  3.81317971E+04  8.67529306E+03  2.45500998E+03
  7.99162178E+02  2.86900215E+02  1.11254132E+02  4.38641526E+01  2.79326692E+02
  8.62747324E+01  1.35557561E+01  5.69781128E+00  8.56365826E+00  1.39882968E+00
  5.72881711E-01  9.00961713E-02  3.41258851E-02  1.30643989E+03  3.09253114E+02
  9.89962740E+01  3.67569165E+01  1.45666571E+01  5.87399374E+00  2.28909997E+01
  3.08550018E+00  1.21323291E+00  4.49316807E-01  4.37200745E+01  1.23912427E+01
  4.26394420E+00  1.55252218E+00  5.37619295E-01  1.64931731E-01  1.20675000E-01
  5.10000000E-02  1.14700000E+00
Contraction coefficients                   R   N=          72
  2.42904776E-04  1.88435236E-03  9.80095844E-03  3.98250087E-02  1.29405437E-01
  3.06290018E-01  4.34628350E-01  2.24695629E-01 -2.43633579E-02 -1.15114954E-01
  5.50922663E-01  5.36113547E-01 -3.71230177E-01  1.16811695E+00  1.00000000E+00
  1.00000000E+00  1.00000000E+00  2.82928007E-03  2.27766292E-02  1.05645619E-01
  2.99499449E-01  4.77062454E-01  2.76542344E-01 -1.94121061E-02  3.86188758E-01
  6.76239089E-01  1.00000000E+00  2.20932593E-02  1.28014388E-01  3.86529103E-01
  6.41033014E-01  1.00000000E+00  1.00000000E+00  1.00000000E+00  1.00000000E+00
  1.00000000E+00  2.42904776E-04  1.88435236E-03  9.80095844E-03  3.98250087E-02
  1.29405437E-01  3.06290018E-01  4.34628350E-01  2.24695629E-01 -2.43633579E-02
 -1.15114954E-01  5.50922663E-01  5.36113547E-01 -3.71230177E-01  1.16811695E+00
  1.00000000E+00  1.00000000E+00  1.00000000E+00  2.82928007E-03  2.27766292E-02
  1.05645619E-01  2.99499449E-01  4.77062454E-01  2.76542344E-01 -1.94121061E-02
  3.86188758E-01  6.76239089E-01  1.00000000E+00  2.20932593E-02  1.28014388E-01
  3.86529103E-01  6.41033014E-01  1.00000000E+00  1.00000000E+00  1.00000000E+00
  1.00000000E+00  1.00000000E+00
Coordinates of each shell                  R   N=          90
  0.00000000E+00  0.00000000E+00  0.00000000E+00  0.00000000E+00  0.00000000E+00
  0.00000000E+00  0.00000000E+00  0.00000000E+00  0.00000000E+00  0.00000000E+00
  0.00000000E+00  0.00000000E+00  0.00000000E+00  0.00000000E+00  0.00000000E+00
  0.00000000E+00  0.00000000E+00  0.00000000E+00  0.00000000E+00  0.00000000E+00
  0.00000000E+00  0.00000000E+00  0.00000000E+00  0.00000000E+00  0.00000000E+00
  0.00000000E+00  0.00000000E+00  0.00000000E+00  0.00000000E+00  0.00000000E+00
  0.00000000E+00  0.00000000E+00  0.00000000E+00  0.00000000E+00  0.00000000E+00
  0.00000000E+00  0.00000000E+00  0.00000000E+00  0.00000000E+00  0.00000000E+00
  0.00000000E+00  0.00000000E+00  0.00000000E+00  0.00000000E+00  0.00000000E+00
  0.00000000E+00  0.00000000E+00  3.77945227E+00  0.00000000E+00  0.00000000E+00
  3.77945227E+00  0.00000000E+00  0.00000000E+00  3.77945227E+00  0.00000000E+00
  0.00000000E+00  3.77945227E+00  0.00000000E+00  0.00000000E+00  3.77945227E+00
  0.00000000E+00  0.00000000E+00  3.77945227E+00  0.00000000E+00  0.00000000E+00
  3.77945227E+00  0.00000000E+00  0.00000000E+00  3.77945227E+00  0.00000000E+00
  0.00000000E+00  3.77945227E+00  0.00000000E+00  0.00000000E+00  3.77945227E+00
  0.00000000E+00  0.00000000E+00  3.77945227E+00  0.00000000E+00  0.00000000E+00
  3.77945227E+00  0.00000000E+00  0.00000000E+00  3.77945227E+00  0.00000000E+00
  0.00000000E+00  3.77945227E+00  0.00000000E+00  0.00000000E+00  3.77945227E+00
Constraint Structure                       R   N=           6
  0.00000000E+00  0.00000000E+00  0.00000000E+00  0.00000000E+00  0.00000000E+00
  3.77945227E+00
Num ILSW                                   I              100
ILSW                                       I   N=         100
           0           0           0           0           2           1
           0           0           0           0           0          -1
           0           0           0           0           0           0
           0           0           0           0           0           0
           1           1           0           0           0           0
           0           0      100000           0          -1           0
           0           0           0           0           0           0
           0           0           0           1           0           0
           0           0           1           0           0           0
           0           0           4          40           0           0
           0           0           0           0           0           0
           0           0           0           0           0           0
           0           0           0           0           0           0
           0           0           0           0           0           0
           0           0           0           0           0           0
           0           0           0           0           0           0
           0           0           0           0
Num RLSW                                   I               40
RLSW                                       R   N=          40
  1.00000000E+00  1.00000000E+00  1.00000000E+00  1.00000000E+00  1.00000000E+00
  0.00000000E+00  0.00000000E+00  1.00000000E+00  0.00000000E+00  0.00000000E+00
  0.00000000E+00  0.00000000E+00  1.00000000E+00  0.00000000E+00  0.00000000E+00
  0.00000000E+00  0.00000000E+00  1.00000000E+00  0.00000000E+00  0.00000000E+00
  0.00000000E+00  0.00000000E+00  1.00000000E+00  0.00000000E+00  0.00000000E+00
  0.00000000E+00  0.00000000E+00  1.00000000E+00  0.00000000E+00  0.00000000E+00
  0.00000000E+00  0.00000000E+00  1.00000000E+00  0.00000000E+00  0.00000000E+00
  0.00000000E+00  0.00000000E+00  0.00000000E+00  1.00000000E+00  1.00000000E+00
ECP-MxAtEC                                 I           250000
ECP-MaxLECP                                I               10
ECP-MaxAtL                                 I          2250000
ECP-MxTECP                                 I         11250000
ECP-LenNCZ                                 I                0
ECP-KFirst                                 I   N=          20
           0           0           0           0           0           0
           0           0           0           0           0           0
           0           0           0           0           0           0
           0           0
ECP-KLast                                  I   N=          20
           0           0           0           0           0           0
           0           0           0           0           0           0
           0           0           0           0           0           0
           0           0
ECP-LMax                                   I   N=           2
           0           0
ECP-LPSkip                                 I   N=           2
           1           1
ECP-RNFroz                                 R   N=           2
  0.00000000E+00  0.00000000E+00
ECP-NLP                                    I                0
ECP-CLP1                                   R      0.000000000000000E+00
ECP-CLP2                                   R      0.000000000000000E+00
ECP-ZLP                                    R      0.000000000000000E+00
MxBond                                     I                1
NBond                                      I   N=           2
           1           1
IBond                                      I   N=           2
           2           1
RBond                                      R   N=           2
  3.00000000E+00  3.00000000E+00
Virial Ratio                               R      1.999829424337988E+00
SCF Energy                                 R     -2.086592657307858E+03
Total Energy                               R     -2.086592657307858E+03
S**2                                       R      5.299223402058864E+00
S**2 after annihilation                    R      1.685508839706891E+01
RMS Density                                R      6.316625260187831E-09
External E-field                           R   N=          35
  0.00000000E+00  0.00000000E+00  0.00000000E+00  0.00000000E+00  0.00000000E+00
  0.00000000E+00  0.00000000E+00  0.00000000E+00  0.00000000E+00  0.00000000E+00
  0.00000000E+00  0.00000000E+00  0.00000000E+00  0.00000000E+00  0.00000000E+00
  0.00000000E+00  0.00000000E+00  0.00000000E+00  0.00000000E+00  0.00000000E+00
  0.00000000E+00  0.00000000E+00  0.00000000E+00  0.00000000E+00  0.00000000E+00
  0.00000000E+00  0.00000000E+00  0.00000000E+00  0.00000000E+00  0.00000000E+00
  0.00000000E+00  0.00000000E+00  0.00000000E+00  0.00000000E+00  0.00000000E+00
IOpCl                                      I                0
IROHF                                      I                0
Alpha Orbital Energies                     R   N=          90
  2.00000000E+00  2.00000000E+00  2.00000000E+00  2.00000000E+00  2.00000000E+00
  2.00000000E+00  2.00000000E+00  2.00000000E+00  2.00000000E+00  2.00000000E+00
  2.00000000E+00  2.00000000E+00  2.00000000E+00  2.00000000E+00  2.00000000E+00
  2.00000000E+00  2.00000000E+00  2.00000000E+00  1.82471106E+00  1.49395697E+00
  1.49395621E+00  1.45792567E+00  1.16827613E+00  1.16827580E+00  8.31664207E-01
  8.31663882E-01  5.41433239E-01  5.06157520E-01  5.06156763E-01  1.75822560E-01
  0.00000000E+00  0.00000000E+00  0.00000000E+00  0.00000000E+00  0.00000000E+00
  0.00000000E+00  0.00000000E+00  0.00000000E+00  0.00000000E+00  0.00000000E+00
  0.00000000E+00  0.00000000E+00  0.00000000E+00  0.00000000E+00  0.00000000E+00
  0.00000000E+00  0.00000000E+00  0.00000000E+00  0.00000000E+00  0.00000000E+00
  0.00000000E+00  0.00000000E+00  0.00000000E+00  0.00000000E+00  0.00000000E+00
  0.00000000E+00  0.00000000E+00  0.00000000E+00  0.00000000E+00  0.00000000E+00
  0.00000000E+00  0.00000000E+00  0.00000000E+00  0.00000000E+00  0.00000000E+00
  0.00000000E+00  0.00000000E+00  0.00000000E+00  0.00000000E+00  0.00000000E+00
  0.00000000E+00  0.00000000E+00  0.00000000E+00  0.00000000E+00  0.00000000E+00
  0.00000000E+00  0.00000000E+00  0.00000000E+00  0.00000000E+00  0.00000000E+00
  0.00000000E+00  0.00000000E+00  0.00000000E+00  0.00000000E+00  0.00000000E+00
  0.00000000E+00  0.00000000E+00  0.00000000E+00  0.00000000E+00  0.00000000E+00
Alpha MO coefficients                      R   N=        8100
 -7.92350747E-01 -5.52459062E-03  1.85256216E-03 -1.27130629E-03  1.66451495E-03
 -3.24311928E-04  4.17074001E-11 -2.24630553E-11 -1.29957692E-05 -2.35293109E-11
 -1.36081875E-11  3.76812211E-05  2.24187552E-11  2.00391293E-12 -8.08554069E-05
  1.91519885E-05  6.94548810E-12  3.40051890E-11  2.67192717E-11  4.97527472E-11
 -5.58883242E-05  7.91757380E-12 -6.53858167E-11 -6.68041843E-11 -8.09091128E-11
  2.44653019E-04 -5.37422892E-12  6.88006082E-11  5.21976049E-11  5.07885683E-11
 -4.33848968E-11  7.91514388E-11  8.95831962E-04  8.70279823E-05 -4.58980112E-11
 -7.90008437E-11  4.18726599E-11 -8.13146153E-11 -1.16452870E-05  3.44929209E-11
 -2.90415700E-11 -1.56060769E-11 -6.10521266E-12  2.53387268E-11  4.95927114E-12
  6.06474882E-01  4.22927639E-03 -1.41736447E-03  9.69358387E-04 -1.59026182E-03
  2.96590398E-04 -5.79437906E-11  6.53688616E-11 -1.16439448E-05  5.85377722E-12
 -1.53048854E-11  3.60684997E-05 -3.94713300E-12 -1.86043945E-11 -6.55007993E-05
 -1.93176281E-05 -1.82732067E-11  1.51180221E-13  7.24420677E-11 -8.91638300E-11
  5.02589271E-05  5.34603700E-11  3.24876597E-11 -1.39811840E-10  8.18341820E-11
 -2.12824188E-04 -5.70824412E-11 -4.30893306E-12  1.15793665E-10 -3.13641827E-11
  5.75994854E-11  1.27786469E-11  8.81793396E-04 -9.30476179E-05  2.50268519E-11
  9.51208870E-11 -9.75611942E-11  1.00513797E-10 -1.68465577E-05 -5.53161935E-11
 -9.45106061E-12  2.01213906E-11 -2.41313580E-11 -5.28859403E-12 -1.42840746E-11
 -6.06475046E-01 -4.22595699E-03  1.42030743E-03 -9.87300317E-04  6.31608286E-05
 -6.30587931E-05  3.27207873E-11 -1.38252002E-11 -3.44882390E-06 -2.17334599E-11
 -2.44918076E-11  1.16797923E-06  2.40153793E-11  3.05959092E-11 -4.80522227E-05
 -3.17919313E-06 -6.57351625E-11 -4.62720818E-11 -1.31423321E-10  1.49348382E-10
 -1.41298667E-05  5.85049963E-11  7.49179380E-11  4.76092589E-10 -3.35227949E-10
  8.93723875E-05  3.51502417E-11 -2.36122011E-10 -8.21898061E-10  5.47839822E-10
  2.62787935E-12 -1.39802846E-10 -6.52765154E-05 -3.46148965E-05 -5.03205421E-11
 -4.11659101E-11  9.64548117E-10 -8.95155832E-10  2.14644607E-05  6.62043942E-11
 -2.76713878E-11 -3.32920639E-11 -3.76251059E-11  6.20290222E-12 -5.61674215E-11
 -7.92350873E-01 -5.52205008E-03  1.85481516E-03 -1.28503928E-03  4.95640439E-04
 -1.45563424E-04  7.23800917E-11 -8.77936989E-11  6.72280178E-06  1.02725787E-11
  3.74055127E-11 -1.09677386E-05 -4.72454418E-11 -5.07519167E-11  6.74997415E-05
  1.93261876E-06 -5.23689787E-11 -4.56524109E-11  5.87709573E-11 -2.29259573E-10
 -2.82343239E-05  2.31580066E-11  1.67805659E-10 -8.46592338E-11  4.23079200E-10
  1.50158617E-04  1.08637380E-11 -3.53433205E-10  1.94901930E-10 -5.03894485E-10
  2.79930555E-11  2.45154940E-10 -1.70923666E-04 -1.06872221E-05  5.20887622E-11
  1.83961473E-10 -5.21875852E-10  7.90802325E-10 -1.76784745E-05 -7.92339562E-11
  2.01464958E-11  4.40787012E-11  4.01867781E-12  7.80443357E-11  2.96452327E-11
  2.21904746E-01 -7.37658887E-01 -2.37172672E-02  6.44198518E-03 -6.17707000E-03
  1.25531425E-03  1.85510777E-09 -1.15099496E-08 -1.31687694E-03  2.79763243E-09
  4.48503648E-09 -2.83420736E-04 -2.15470564E-09 -4.64972231E-09  4.10447310E-04
 -2.00253853E-04  4.35560503E-09 -1.63253975E-09 -7.71347760E-10 -1.55464322E-09
  2.84083616E-04 -2.87588523E-09 -4.01480268E-09 -1.31057462E-09  1.12270103E-09
 -7.97901359E-04  2.61931530E-09  1.74953219E-09  2.12007336E-09 -1.79137134E-09
  8.87642172E-10  1.76697474E-09 -3.15639251E-03 -3.50809838E-04 -4.49317188E-10
 -1.03781446E-09 -9.72550781E-10  6.46839001E-10  7.93194484E-05  7.70783115E-10
 -7.20135102E-10  1.10673488E-09  5.02230990E-10  2.19899286E-10  2.53085612E-10
 -2.19249898E-01  7.28833595E-01  2.34349967E-02 -6.36287514E-03  6.15897667E-03
 -1.25177425E-03 -1.72671446E-08  1.11565926E-08 -1.30050153E-03  2.25057783E-09
 -3.29899349E-10 -2.82428087E-04 -2.48157860E-09  2.60329992E-09  4.07207594E-04
  1.99088440E-04  8.77717301E-09  4.12670823E-09  1.86503278E-09 -7.55584635E-10
 -2.83030077E-04 -9.65228958E-10  1.26428878E-09 -2.88201451E-09 -5.92226960E-10
  7.91790886E-04  3.21463844E-09  3.65436619E-09  3.12040829E-09  5.15208793E-10
 -2.48468681E-09 -3.00206168E-09 -3.15371586E-03  3.51870096E-04 -8.88382434E-10
  8.35783805E-10 -8.75973815E-10 -7.72810723E-10  8.04317677E-05 -1.40177501E-09
  3.56736301E-10  7.69948627E-10  1.26538591E-11  4.99555239E-11  2.29686385E-10
 -2.19264732E-01  7.28883805E-01  2.33130503E-02 -6.53554332E-03  1.46587607E-03
 -2.86480930E-04 -2.18728681E-09  1.06652415E-08  1.34990089E-03 -2.10562331E-09
 -1.94886828E-09  8.09583648E-05  3.03640420E-09  2.23515674E-09 -2.67141572E-04
  9.42763753E-05  2.77713218E-09  6.88601791E-09 -1.49587253E-11 -1.31888640E-09
 -8.61575147E-05  2.22986619E-09  3.97908399E-09 -3.14019970E-09  3.18019177E-09
  5.02680526E-04 -2.15083712E-09  1.36903456E-09  5.99844546E-09 -2.97293301E-09
 -3.02801335E-09 -1.85315485E-09  2.03897908E-04 -9.01904075E-05 -1.67273819E-10
  1.07264334E-09 -7.84792494E-09  6.82221942E-09  9.28926025E-05  9.78702398E-10
  1.89386470E-09  1.74138074E-10  1.39001913E-09 -3.78310443E-11 -1.00686912E-09
 -2.21919402E-01  7.37708494E-01  2.35967859E-02 -6.61259028E-03  1.54014665E-03
 -3.01579338E-04 -1.67367177E-08  1.14612466E-08 -1.36561785E-03 -1.59028987E-10
 -4.33428302E-10 -8.43511079E-05 -2.46404455E-10  1.14911895E-09  2.72050429E-04
  9.66571469E-05  9.18843460E-09 -6.45862986E-09  8.90389417E-10  2.05911799E-09
 -8.95759196E-05  4.07538802E-09 -2.75477068E-09  7.02123378E-10 -2.52213741E-09
  5.12251443E-04 -7.30047695E-10 -1.26566476E-09 -4.66272079E-10  3.65414609E-09
  1.08626319E-09 -7.40009883E-10 -2.41895296E-04 -8.59592364E-05 -6.32056447E-10
 -2.12093514E-09  3.84772220E-09 -5.39409298E-09 -9.19347237E-05  8.75299731E-10
  2.17219850E-09 -9.69516526E-10 -2.75258038E-11  3.23933416E-10 -4.22817456E-10
  4.33669073E-04 -1.45498880E-03  5.36043530E-06 -3.68575336E-05 -7.64519799E-04
  2.42577274E-04 -6.59015870E-07 -4.54031700E-07  7.02864700E-01 -1.36499863E-08
 -1.08013166E-08  1.53128051E-02  2.79696535E-09  3.08606480E-09 -3.15645301E-03
  1.20548608E-04 -1.44578730E-09  1.68898876E-09 -7.29041574E-10  4.58136628E-10
 -4.25848582E-05  1.90328553E-09  7.64632862E-09  8.65879200E-10  8.52993945E-10
  2.69626848E-04  8.61464045E-10  9.97769633E-10 -7.14556139E-10  4.72991946E-10
 -7.45088629E-10 -1.48227565E-09  1.26038100E-03  2.52209432E-04  3.12585813E-10
  1.23506473E-09 -7.39129324E-10  1.15471957E-09  1.37287821E-04  1.33343130E-10
  9.61683433E-10 -6.71891025E-10 -4.51018942E-11 -8.80886637E-10 -1.84427968E-10
  4.32058374E-04 -1.44990351E-03  4.49712620E-06 -3.54038696E-05 -7.77905558E-04
  2.40866076E-04 -1.32060677E-06  3.99240911E-07 -7.00309066E-01 -2.82288763E-08
  7.15202704E-09 -1.52559589E-02  5.02927044E-09 -9.49548829E-10  3.14250667E-03
  1.19221131E-04  7.51782426E-10 -3.62302356E-09 -1.36442471E-09 -9.23682509E-10
 -4.03368386E-05  2.16542031E-09 -5.95662511E-09 -5.73946295E-10 -6.27055157E-10
  2.67086383E-04  2.19824572E-09  4.66644008E-10  1.01804280E-09 -1.18283735E-09
 -2.16448565E-09  8.57200914E-10 -1.24692621E-03  2.51279672E-04 -3.37701520E-10
 -9.70625139E-10 -5.83131487E-10 -3.17591129E-10 -1.37836248E-04 -7.93513879E-10
  9.27116260E-10  7.74368961E-10 -1.55875926E-10 -1.90128699E-10  4.94213389E-10
  4.38245648E-04 -1.38306342E-03  2.35468398E-04 -3.98256537E-04  3.67277078E-03
  4.68987962E-04 -7.34863883E-07 -5.54027366E-07  7.00255688E-01 -1.39218395E-08
 -9.22860821E-09  1.55737004E-02  2.21225828E-09 -1.83112726E-10 -3.81820343E-03
  3.62379131E-04 -3.93131255E-09 -1.62689129E-08  3.23768870E-10 -5.90894303E-10
 -6.18852619E-04 -1.15727924E-09  3.49985366E-10  9.78294482E-10  1.11704069E-09
  6.96011044E-04  1.34431154E-09 -3.44388209E-09  6.75568639E-10 -1.09135954E-09
  7.04266424E-11 -1.70391218E-09  3.68761210E-03  2.54744999E-04 -1.58690161E-09
 -4.13663779E-10 -2.21020155E-10  8.52660174E-10 -1.50439129E-04 -6.94251825E-11
 -1.30790157E-10 -2.28713116E-10 -1.95826780E-10 -3.60744797E-10  5.41180294E-10
 -4.39809269E-04  1.38831124E-03 -2.35471004E-04  3.98389549E-04 -3.66996693E-03
 -4.69872989E-04  1.25358278E-06 -4.46491454E-07  7.02811520E-01  2.76463170E-08
 -1.18018151E-08  1.56293786E-02 -4.69117157E-09  5.56567149E-09 -3.82968174E-03
 -3.62858845E-04  2.64072901E-08 -2.01908914E-09  3.41964077E-09  2.49743516E-09
  6.19003588E-04  1.87406489E-09  2.12141323E-09  1.77530339E-09  2.54291483E-11
 -6.97000247E-04  6.56326000E-09  3.13206236E-11  1.47704110E-09  8.90573606E-10
 -6.26943078E-10 -7.93800109E-10  3.69218319E-03 -2.55662838E-04 -1.15439534E-09
 -5.62136461E-10  7.29897942E-10 -3.38579594E-10 -1.49939596E-04 -1.08785951E-09
  2.91961036E-10  1.39698559E-10 -2.17335126E-10 -2.65424308E-10  6.76296794E-10
 -2.73889586E-10  1.63006131E-10 -4.47344597E-09  2.86486137E-09 -5.70570296E-10
  6.34632968E-09  6.97245938E-01  9.22040969E-02  7.96943864E-07  1.51424565E-02
  2.00245613E-03  1.61988015E-08 -2.98840102E-03 -3.95211721E-04 -2.25513821E-09
  4.43557572E-09  1.58869829E-04  2.10130702E-05 -1.20272876E-09 -1.64252923E-08
  3.26622562E-10 -1.03633921E-04 -1.37083853E-05 -4.04329697E-10  2.13083052E-09
  1.66491607E-09  1.72478120E-04  2.28157582E-05  6.50274342E-10 -2.63472758E-09
  7.74473146E-04  1.02486502E-04  3.84497022E-09 -1.02854246E-09 -2.28625372E-04
 -3.01888183E-05  1.06765782E-10  8.49202212E-10  1.40164249E-10  2.83741334E-05
  3.74559465E-06 -2.82679495E-10  7.54143816E-10 -9.42501226E-10  2.45112534E-09
 -3.95467609E-09  1.36172528E-08  1.00318248E-09 -2.61650037E-09  3.43349437E-11
 -1.64156723E-09  6.93862709E-01  9.16465199E-02 -1.17231732E-06  1.50684063E-02
  1.99024989E-03 -2.55675205E-08 -2.97253197E-03 -3.92595067E-04  6.07582731E-09
 -7.07499113E-09 -1.57815302E-04 -2.08413862E-05  1.49298461E-08 -1.51926262E-08
 -8.93728774E-10  1.02963168E-04  1.36004999E-05 -4.27867839E-10  2.29335298E-09
 -3.44480572E-10 -1.71398178E-04 -2.26358129E-05  4.16669345E-09 -3.04701325E-09
  7.66607547E-04  1.01186641E-04 -1.27388864E-10  1.38286900E-09  2.30387078E-04
  3.04810979E-05 -7.74298113E-10  7.33900679E-10 -3.60535654E-10  2.85970907E-05
  3.78262947E-06 -1.09533318E-09  1.60909899E-09 -1.44838907E-09  2.69401297E-11
  3.33601587E-09 -1.15469576E-08 -2.39401914E-09  1.52541489E-09 -1.74432297E-08
  3.48981347E-09 -9.21659236E-02  6.97224143E-01  4.27042875E-07 -2.00161810E-03
  1.51419787E-02  1.09725633E-08  3.95029194E-04 -2.98829843E-03 -5.50763581E-09
  8.93217013E-09 -2.09976515E-05  1.58857911E-04  1.82303144E-08 -3.97869035E-09
 -1.35504717E-09  1.36979220E-05 -1.03633272E-04 -1.51212085E-09  9.43068145E-10
  5.50114720E-10 -2.27987961E-05  1.72473766E-04  3.41429847E-09 -1.66520600E-09
 -1.02392828E-04  7.74423971E-04 -8.05216391E-09 -8.84129994E-10  3.02051057E-05
 -2.28637066E-04 -1.00558163E-09 -1.22064520E-09  2.92337910E-10 -3.74868219E-06
  2.83767632E-05 -1.81928618E-09  8.10744060E-10 -1.53705725E-10 -2.43744375E-10
  3.71866576E-09 -1.28688889E-08 -1.01142478E-09  6.79652426E-10  1.23073989E-08
 -1.70507542E-09 -9.16848765E-02  6.93884613E-01  6.31578111E-07 -1.99109087E-03
  1.50688869E-02  1.29995231E-08  3.92774869E-04 -2.97263482E-03 -4.49682436E-10
  8.32949550E-09  2.08488134E-05 -1.57817845E-04  8.52758259E-09  1.55299249E-08
 -2.01039385E-09 -1.36057893E-05  1.02968019E-04  7.92378577E-10  7.52419073E-10
  9.27768454E-09  2.26465732E-05 -1.71402508E-04  7.22296832E-10  2.48878642E-09
 -1.01275448E-04  7.66654373E-04 -1.12331109E-08 -1.74880396E-09 -3.04553644E-05
  2.30376239E-04 -8.23357890E-11 -6.29627271E-10 -7.70774195E-10 -3.77924541E-06
  2.85971682E-05 -2.00798757E-09  8.66740028E-10 -6.81429926E-10  2.18124855E-09
 -8.06639447E-10  3.38353102E-09 -1.77376315E-09 -5.46542034E-09 -8.89648361E-08
  1.48158762E-08  6.99867349E-01  2.06619163E-03  6.61121099E-07  1.53193048E-02
  4.52241438E-05  1.20374661E-08 -3.28480093E-03 -9.68839345E-06 -1.99948051E-09
  2.74643782E-09  2.23885843E-04  6.58171243E-07 -7.62058855E-09 -9.38832516E-09
  3.79081664E-09 -1.39135622E-04 -4.07668238E-07 -7.89895100E-10 -3.70753568E-09
 -2.36754003E-08  2.24517736E-04  6.61131951E-07 -3.52536526E-09  3.21145921E-09
  1.63036281E-03  4.78434038E-06 -6.96330761E-08  1.57239012E-09  3.66173855E-04
  1.06381824E-06  5.87694866E-10 -1.26463061E-09 -7.32638699E-10 -4.67648238E-05
 -1.34539630E-07  9.71744558E-10 -4.16150123E-10 -3.11817251E-09  8.57565472E-10
  3.83039068E-09 -1.28499348E-08 -4.49197184E-09 -7.04019307E-09  1.05367125E-07
 -3.90413874E-09 -7.03284875E-01 -2.04247750E-03  1.32747056E-06 -1.53935313E-02
 -4.47081226E-05  3.05174005E-08  3.29945863E-03  9.58834271E-06 -5.16085137E-09
  7.92782778E-09  2.24686295E-04  6.54333078E-07 -1.31249941E-08  8.18060753E-09
  7.84092394E-10 -1.39646389E-04 -4.07590378E-07 -1.85165441E-09 -8.79044101E-10
  2.70913918E-08  2.25369996E-04  6.57990320E-07 -4.40206046E-09  7.85353026E-10
 -1.63415779E-03 -4.76399909E-06 -6.96221173E-08 -1.83552471E-09  3.65043692E-04
  1.06830406E-06  6.53616129E-09  3.22954559E-09 -5.46831792E-10  4.66267114E-05
  1.38474693E-07 -6.16272169E-10  1.98458980E-09 -7.62315124E-10  5.46658025E-10
 -2.92415906E-09  1.02856846E-08  5.35163839E-09  2.05844098E-09 -6.09263832E-08
  1.65257986E-09  2.10704211E-03 -6.99884157E-01 -4.77100903E-07  4.61121773E-05
 -1.53196687E-02 -1.02741112E-08 -9.86779352E-06  3.28487129E-03  3.26434081E-09
 -7.55368667E-09  6.68837117E-07 -2.23890003E-04 -1.79154214E-08  1.10792662E-08
 -6.37236691E-10 -4.15454300E-07  1.39140446E-04  4.71104788E-09  9.28520159E-10
 -1.48233631E-08  6.71791246E-07 -2.24522553E-04 -3.76265931E-09  2.59323295E-09
  4.84627482E-06 -1.63037807E-03 -4.33346174E-08 -6.26304487E-09  1.06004121E-06
 -3.66168978E-04  2.40075891E-09 -9.63268455E-10 -8.19371274E-10 -1.33103025E-07
  4.67667133E-05 -1.12206157E-09 -1.95997335E-09  2.16800331E-11  1.29911547E-09
  3.47395479E-09 -1.19102856E-08  9.51879223E-10  9.91235776E-10  6.54458463E-08
 -1.72235880E-08 -2.00182571E-03  7.03268146E-01  3.77657316E-07 -4.38266204E-05
  1.53931686E-02  8.10523589E-09  9.41523337E-06 -3.29938636E-03 -4.42394421E-09
  2.03054258E-09  6.47490327E-07 -2.24680267E-04  5.86945483E-09  1.30874243E-08
 -1.64065445E-09 -4.04702357E-07  1.39647622E-04 -2.88822011E-09  3.93939192E-09
  1.44908132E-08  6.56419957E-07 -2.25366748E-04 -5.28648815E-10  2.60286112E-09
 -4.72612840E-06  1.63413531E-03 -3.45670116E-08  4.63232693E-10  1.08905076E-06
 -3.65048492E-04 -2.08716316E-09  2.44382531E-09 -4.68336190E-10  1.40709449E-07
 -4.66277207E-05  2.65916599E-09  2.02355754E-09  1.41462339E-09  5.92352359E-10
 -7.87720786E-02  3.12108022E-01 -4.46581370E-01 -3.27579715E-01 -1.11024441E-02
  1.62352134E-03 -1.22288084E-08  6.21046411E-09  4.67346109E-03  2.24073286E-08
 -2.11740535E-08 -1.03904600E-02  3.26067288E-08  1.86961939E-08 -4.66309830E-03
 -2.29824658E-03 -3.01134115E-09  1.45950522E-09  1.91160190E-08  2.59859490E-09
 -3.43435237E-03  4.20173570E-09  9.00649491E-09  1.58213865E-08 -1.24561188E-08
 -1.06195374E-03  5.60193541E-09 -3.77273405E-09 -1.51439389E-08  1.23499424E-08
 -1.32679890E-08 -2.28882318E-08 -4.09632884E-04  3.25810652E-05 -2.09297907E-09